 Entering Gaussian System, Link 0=g16
 Input=h2-16.com
 Output=h2-16.log
 Initial command:
 /usr/local/g16reva03/legacy_cpu/g16/l1.exe "/scratch/global/g16/Gau-21181.inp" -scrdir="/scratch/global/g16/"
 Entering Link 1 = /usr/local/g16reva03/legacy_cpu/g16/l1.exe PID=     21182.
  
 Copyright (c) 1988,1990,1992,1993,1995,1998,2003,2009,2016,
            Gaussian, Inc.  All Rights Reserved.
  
 This is part of the Gaussian(R) 16 program.  It is based on
 the Gaussian(R) 09 system (copyright 2009, Gaussian, Inc.),
 the Gaussian(R) 03 system (copyright 2003, Gaussian, Inc.),
 the Gaussian(R) 98 system (copyright 1998, Gaussian, Inc.),
 the Gaussian(R) 94 system (copyright 1995, Gaussian, Inc.),
 the Gaussian 92(TM) system (copyright 1992, Gaussian, Inc.),
 the Gaussian 90(TM) system (copyright 1990, Gaussian, Inc.),
 the Gaussian 88(TM) system (copyright 1988, Gaussian, Inc.),
 the Gaussian 86(TM) system (copyright 1986, Carnegie Mellon
 University), and the Gaussian 82(TM) system (copyright 1983,
 Carnegie Mellon University). Gaussian is a federally registered
 trademark of Gaussian, Inc.
  
 This software contains proprietary and confidential information,
 including trade secrets, belonging to Gaussian, Inc.
  
 This software is provided under written license and may be
 used, copied, transmitted, or stored only in accord with that
 written license.
  
 The following legend is applicable only to US Government
 contracts under FAR:
  
                    RESTRICTED RIGHTS LEGEND
  
 Use, reproduction and disclosure by the US Government is
 subject to restrictions as set forth in subparagraphs (a)
 and (c) of the Commercial Computer Software - Restricted
 Rights clause in FAR 52.227-19.
  
 Gaussian, Inc.
 340 Quinnipiac St., Bldg. 40, Wallingford CT 06492
  
  
 ---------------------------------------------------------------
 Warning -- This program may not be used in any manner that
 competes with the business of Gaussian, Inc. or will provide
 assistance to any competitor of Gaussian, Inc.  The licensee
 of this program is prohibited from giving any competitor of
 Gaussian, Inc. access to this program.  By using this program,
 the user acknowledges that Gaussian, Inc. is engaged in the
 business of creating and licensing software in the field of
 computational chemistry and represents and warrants to the
 licensee that it is not a competitor of Gaussian, Inc. and that
 it will not use this program in any manner prohibited above.
 ---------------------------------------------------------------
  

 Cite this work as:
 Gaussian 16, Revision A.03,
 M. J. Frisch, G. W. Trucks, H. B. Schlegel, G. E. Scuseria, 
 M. A. Robb, J. R. Cheeseman, G. Scalmani, V. Barone, 
 G. A. Petersson, H. Nakatsuji, X. Li, M. Caricato, A. V. Marenich, 
 J. Bloino, B. G. Janesko, R. Gomperts, B. Mennucci, H. P. Hratchian, 
 J. V. Ortiz, A. F. Izmaylov, J. L. Sonnenberg, D. Williams-Young, 
 F. Ding, F. Lipparini, F. Egidi, J. Goings, B. Peng, A. Petrone, 
 T. Henderson, D. Ranasinghe, V. G. Zakrzewski, J. Gao, N. Rega, 
 G. Zheng, W. Liang, M. Hada, M. Ehara, K. Toyota, R. Fukuda, 
 J. Hasegawa, M. Ishida, T. Nakajima, Y. Honda, O. Kitao, H. Nakai, 
 T. Vreven, K. Throssell, J. A. Montgomery, Jr., J. E. Peralta, 
 F. Ogliaro, M. J. Bearpark, J. J. Heyd, E. N. Brothers, K. N. Kudin, 
 V. N. Staroverov, T. A. Keith, R. Kobayashi, J. Normand, 
 K. Raghavachari, A. P. Rendell, J. C. Burant, S. S. Iyengar, 
 J. Tomasi, M. Cossi, J. M. Millam, M. Klene, C. Adamo, R. Cammi, 
 J. W. Ochterski, R. L. Martin, K. Morokuma, O. Farkas, 
 J. B. Foresman, and D. J. Fox, Gaussian, Inc., Wallingford CT, 2016.
 
 ******************************************
 Gaussian 16:  EM64L-G16RevA.03 25-Dec-2016
                 5-Dec-2021 
 ******************************************
 ------------------------------------------------
 #p rhf nosymm output=matrix int=noraf scf=conven
 ------------------------------------------------
 1/38=1,172=1/1;
 2/12=2,15=1,17=6,18=5,40=1/2;
 3/25=20,28=1,30=1,116=1/1,2,3,8,20;
 4//1;
 5/5=1,29=1/2;
 6/7=2,8=2,9=2,10=2,28=1/1;
 99/5=1,6=100000,9=1/99;
 Leave Link    1 at Sun Dec  5 14:13:54 2021, MaxMem=           0 cpu:               0.1 elap:               0.4
 (Enter /usr/local/g16reva03/legacy_cpu/g16/l101.exe)
 --------
 h2-sto3g
 --------
 Symbolic Z-matrix:
 Charge =  0 Multiplicity = 1
 H
 H                    1     0.6 
 H                    2     0.6      1     180. 
 H                    3     0.6      2     180.     1     0.       0
 H                    4     0.6      3     180.     1     0.       0
 H                    5     0.6      4     180.     1     0.       0
 H                    6     0.6      5     180.     1     0.       0
 H                    7     0.6      6     180.     1     0.       0
 H                    8     0.6      7     180.     1     0.       0
 H                    9     0.6      8     180.     1     0.       0
 H                    10    0.6      9     180.     1     0.       0
 H                    11    0.6      10    180.     1     0.       0
 H                    12    0.6      11    180.     1     0.       0
 H                    13    0.6      12    180.     1     0.       0
 H                    14    0.6      13    180.     1     0.       0
 H                    15    0.6      14    180.     1     0.       0
 
 ITRead=  0  0  0  0  0  0  0  0  0  0  0  0  0  0  0  0
 MicOpt= -1 -1 -1 -1 -1 -1 -1 -1 -1 -1 -1 -1 -1 -1 -1 -1
 NAtoms=     16 NQM=       16 NQMF=       0 NMMI=      0 NMMIF=      0
                NMic=       0 NMicF=      0.
                    Isotopes and Nuclear Properties:
 (Nuclear quadrupole moments (NQMom) in fm**2, nuclear magnetic moments (NMagM)
  in nuclear magnetons)

  Atom         1           2           3           4           5           6           7           8           9          10
 IAtWgt=           1           1           1           1           1           1           1           1           1           1
 AtmWgt=   1.0078250   1.0078250   1.0078250   1.0078250   1.0078250   1.0078250   1.0078250   1.0078250   1.0078250   1.0078250
 NucSpn=           1           1           1           1           1           1           1           1           1           1
 AtZEff=  -0.0000000  -0.0000000  -0.0000000  -0.0000000  -0.0000000  -0.0000000  -0.0000000  -0.0000000  -0.0000000  -0.0000000
 NQMom=    0.0000000   0.0000000   0.0000000   0.0000000   0.0000000   0.0000000   0.0000000   0.0000000   0.0000000   0.0000000
 NMagM=    2.7928460   2.7928460   2.7928460   2.7928460   2.7928460   2.7928460   2.7928460   2.7928460   2.7928460   2.7928460
 AtZNuc=   1.0000000   1.0000000   1.0000000   1.0000000   1.0000000   1.0000000   1.0000000   1.0000000   1.0000000   1.0000000

  Atom        11          12          13          14          15          16
 IAtWgt=           1           1           1           1           1           1
 AtmWgt=   1.0078250   1.0078250   1.0078250   1.0078250   1.0078250   1.0078250
 NucSpn=           1           1           1           1           1           1
 AtZEff=  -0.0000000  -0.0000000  -0.0000000  -0.0000000  -0.0000000  -0.0000000
 NQMom=    0.0000000   0.0000000   0.0000000   0.0000000   0.0000000   0.0000000
 NMagM=    2.7928460   2.7928460   2.7928460   2.7928460   2.7928460   2.7928460
 AtZNuc=   1.0000000   1.0000000   1.0000000   1.0000000   1.0000000   1.0000000
 Leave Link  101 at Sun Dec  5 14:13:55 2021, MaxMem=   104857600 cpu:               0.2 elap:               0.2
 (Enter /usr/local/g16reva03/legacy_cpu/g16/l202.exe)
                          Input orientation:                          
 ---------------------------------------------------------------------
 Center     Atomic      Atomic             Coordinates (Angstroms)
 Number     Number       Type             X           Y           Z
 ---------------------------------------------------------------------
      1          1           0        0.000000    0.000000    0.000000
      2          1           0        0.000000    0.000000    0.600000
      3          1           0        0.000000    0.000000    1.200000
      4          1           0        0.000000    0.000000    1.800000
      5          1           0        0.000000    0.000000    2.400000
      6          1           0        0.000000    0.000000    3.000000
      7          1           0        0.000000    0.000000    3.600000
      8          1           0        0.000000    0.000000    4.200000
      9          1           0        0.000000    0.000000    4.800000
     10          1           0        0.000000    0.000000    5.400000
     11          1           0        0.000000    0.000000    6.000000
     12          1           0        0.000000    0.000000    6.600000
     13          1           0        0.000000    0.000000    7.200000
     14          1           0        0.000000    0.000000    7.800000
     15          1           0        0.000000    0.000000    8.400000
     16          1           0        0.000000    0.000000    9.000000
 ---------------------------------------------------------------------
                    Distance matrix (angstroms):
                    1          2          3          4          5
     1  H    0.000000
     2  H    0.600000   0.000000
     3  H    1.200000   0.600000   0.000000
     4  H    1.800000   1.200000   0.600000   0.000000
     5  H    2.400000   1.800000   1.200000   0.600000   0.000000
     6  H    3.000000   2.400000   1.800000   1.200000   0.600000
     7  H    3.600000   3.000000   2.400000   1.800000   1.200000
     8  H    4.200000   3.600000   3.000000   2.400000   1.800000
     9  H    4.800000   4.200000   3.600000   3.000000   2.400000
    10  H    5.400000   4.800000   4.200000   3.600000   3.000000
    11  H    6.000000   5.400000   4.800000   4.200000   3.600000
    12  H    6.600000   6.000000   5.400000   4.800000   4.200000
    13  H    7.200000   6.600000   6.000000   5.400000   4.800000
    14  H    7.800000   7.200000   6.600000   6.000000   5.400000
    15  H    8.400000   7.800000   7.200000   6.600000   6.000000
    16  H    9.000000   8.400000   7.800000   7.200000   6.600000
                    6          7          8          9         10
     6  H    0.000000
     7  H    0.600000   0.000000
     8  H    1.200000   0.600000   0.000000
     9  H    1.800000   1.200000   0.600000   0.000000
    10  H    2.400000   1.800000   1.200000   0.600000   0.000000
    11  H    3.000000   2.400000   1.800000   1.200000   0.600000
    12  H    3.600000   3.000000   2.400000   1.800000   1.200000
    13  H    4.200000   3.600000   3.000000   2.400000   1.800000
    14  H    4.800000   4.200000   3.600000   3.000000   2.400000
    15  H    5.400000   4.800000   4.200000   3.600000   3.000000
    16  H    6.000000   5.400000   4.800000   4.200000   3.600000
                   11         12         13         14         15
    11  H    0.000000
    12  H    0.600000   0.000000
    13  H    1.200000   0.600000   0.000000
    14  H    1.800000   1.200000   0.600000   0.000000
    15  H    2.400000   1.800000   1.200000   0.600000   0.000000
    16  H    3.000000   2.400000   1.800000   1.200000   0.600000
                   16
    16  H    0.000000
 Symmetry turned off by external request.
 Stoichiometry    H16
 Framework group  D*H[C*(HHHHHHHH.HHHHHHHH)]
 Deg. of freedom     8
 Full point group                 D*H     NOp   8
 Rotational constants (GHZ):           0.0000000           4.0968554           4.0968554
 Leave Link  202 at Sun Dec  5 14:13:55 2021, MaxMem=   104857600 cpu:               0.0 elap:               0.1
 (Enter /usr/local/g16reva03/legacy_cpu/g16/l301.exe)
 Standard basis: STO-3G (5D, 7F)
 Ernie: Thresh=  0.10000D-02 Tol=  0.10000D-05 Strict=F.
    16 basis functions,    48 primitive gaussians,    16 cartesian basis functions
     8 alpha electrons        8 beta electrons
       nuclear repulsion energy        33.5954007625 Hartrees.
 IExCor=    0 DFT=F Ex=HF Corr=None ExCW=0 ScaHFX=  1.000000
 ScaDFX=  1.000000  1.000000  1.000000  1.000000 ScalE2=  1.000000  1.000000
 IRadAn=      5 IRanWt=     -1 IRanGd=            0 ICorTp=0 IEmpDi=  4
 NAtoms=   16 NActive=   16 NUniq=   16 SFac= 1.00D+00 NAtFMM=   60 NAOKFM=F Big=F
 Integral buffers will be    131072 words long.
 Regular integral format.
 Two-electron integral symmetry is turned off.
 Leave Link  301 at Sun Dec  5 14:13:55 2021, MaxMem=   104857600 cpu:               0.1 elap:               0.1
 (Enter /usr/local/g16reva03/legacy_cpu/g16/l302.exe)
 NPDir=0 NMtPBC=     1 NCelOv=     1 NCel=       1 NClECP=     1 NCelD=      1
         NCelK=      1 NCelE2=     1 NClLst=     1 CellRange=     0.0.
 One-electron integrals computed using PRISM.
 NBasis=    16 RedAO= T EigKep=  3.56D-02  NBF=    16
 NBsUse=    16 1.00D-06 EigRej= -1.00D+00 NBFU=    16
 Leave Link  302 at Sun Dec  5 14:13:55 2021, MaxMem=   104857600 cpu:               0.1 elap:               0.2
 (Enter /usr/local/g16reva03/legacy_cpu/g16/l303.exe)
 DipDrv:  MaxL=1.
 Leave Link  303 at Sun Dec  5 14:13:55 2021, MaxMem=   104857600 cpu:               0.1 elap:               0.1
 (Enter /usr/local/g16reva03/legacy_cpu/g16/l308.exe)
 Leave Link  308 at Sun Dec  5 14:13:55 2021, MaxMem=   104857600 cpu:               0.1 elap:               0.1
 (Enter /usr/local/g16reva03/legacy_cpu/g16/l320.exe)
 Enter DskPsm, NBasis=  16 NBas6D=  16 NShell=  16 IDoSP=4.
 Out2e will use a cutoff of  1.00D-10
 FoFCou: FMM=F IPFlag=           0 FMFlag=           0 FMFlg1=           0
         NFxFlg=           0 DoJE=F BraDBF=F KetDBF=F FulRan=T
         wScrn=  0.000000 ICntrl=       600 IOpCl=  9 I1Cent=           0 NGrid=           0
         NMat0=    0 NMatS0=      0 NMatT0=    0 NMatD0=    0 NMtDS0=    0 NMtDT0=    0
 Symmetry not used in FoFCou.
         8278 integrals produced for a total of         8278.
 Leave Link  320 at Sun Dec  5 14:13:55 2021, MaxMem=   104857600 cpu:               0.1 elap:               0.1
 (Enter /usr/local/g16reva03/legacy_cpu/g16/l401.exe)
 ExpMin= 1.69D-01 ExpMax= 3.43D+00 ExpMxC= 3.43D+00 IAcc=3 IRadAn=         5 AccDes= 0.00D+00
 Harris functional with IExCor=  205 and IRadAn=       5 diagonalized for initial guess.
 HarFok:  IExCor=  205 AccDes= 0.00D+00 IRadAn=         5 IDoV= 1 UseB2=F ITyADJ=14
 ICtDFT=  3500011 ScaDFX=  1.000000  1.000000  1.000000  1.000000
 FoFCou: FMM=F IPFlag=           0 FMFlag=      100000 FMFlg1=           0
         NFxFlg=           0 DoJE=T BraDBF=F KetDBF=T FulRan=T
         wScrn=  0.000000 ICntrl=       500 IOpCl=  0 I1Cent=   200000004 NGrid=           0
         NMat0=    1 NMatS0=      1 NMatT0=    0 NMatD0=    1 NMtDS0=    0 NMtDT0=    0
 Symmetry not used in FoFCou.
 Harris En= -7.68558486482143    
 JPrj=0 DoOrth=F DoCkMO=F.
 Leave Link  401 at Sun Dec  5 14:13:58 2021, MaxMem=   104857600 cpu:               2.0 elap:               2.0
 (Enter /usr/local/g16reva03/legacy_cpu/g16/l502.exe)
 Two-electron integral symmetry not used.
 Closed shell SCF:
 Using DIIS extrapolation, IDIIS=  1040.
 Unsorted integral processing.
 NGot=   104857600 LenX=   104593744 LenY=   104592862
 Requested convergence on RMS density matrix=1.00D-08 within 128 cycles.
 Requested convergence on MAX density matrix=1.00D-06.
 Requested convergence on             energy=1.00D-06.
 No special actions if energy rises.

 Cycle   1  Pass 1  IDiag  1:
 E= -6.81503986508089    
 DIIS: error= 2.06D-02 at cycle   1 NSaved=   1.
 NSaved= 1 IEnMin= 1 EnMin= -6.81503986508089     IErMin= 1 ErrMin= 2.06D-02
 ErrMax= 2.06D-02  0.00D+00 EMaxC= 1.00D-01 BMatC= 7.89D-03 BMatP= 7.89D-03
 IDIUse=3 WtCom= 7.94D-01 WtEn= 2.06D-01
 Coeff-Com:  0.100D+01
 Coeff-En:   0.100D+01
 Coeff:      0.100D+01
 Gap=     0.498 Goal=   None    Shift=    0.000
 GapD=    0.498 DampG=2.000 DampE=0.500 DampFc=1.0000 IDamp=-1.
 RMSDP=1.56D-02 MaxDP=3.95D-02              OVMax= 0.00D+00

 Cycle   2  Pass 1  IDiag  1:
 E= -6.83247246934931     Delta-E=       -0.017432604268 Rises=F Damp=F
 DIIS: error= 7.57D-03 at cycle   2 NSaved=   2.
 NSaved= 2 IEnMin= 2 EnMin= -6.83247246934931     IErMin= 2 ErrMin= 7.57D-03
 ErrMax= 7.57D-03  0.00D+00 EMaxC= 1.00D-01 BMatC= 9.42D-04 BMatP= 7.89D-03
 IDIUse=3 WtCom= 9.24D-01 WtEn= 7.57D-02
 Coeff-Com: -0.311D+00 0.131D+01
 Coeff-En:   0.000D+00 0.100D+01
 Coeff:     -0.288D+00 0.129D+01
 Gap=     0.529 Goal=   None    Shift=    0.000
 RMSDP=8.09D-03 MaxDP=2.09D-02 DE=-1.74D-02 OVMax= 0.00D+00

 Cycle   3  Pass 1  IDiag  1:
 E= -6.83481155425104     Delta-E=       -0.002339084902 Rises=F Damp=F
 DIIS: error= 1.55D-03 at cycle   3 NSaved=   3.
 NSaved= 3 IEnMin= 3 EnMin= -6.83481155425104     IErMin= 3 ErrMin= 1.55D-03
 ErrMax= 1.55D-03  0.00D+00 EMaxC= 1.00D-01 BMatC= 4.90D-05 BMatP= 9.42D-04
 IDIUse=3 WtCom= 9.84D-01 WtEn= 1.55D-02
 Coeff-Com:  0.175D-01-0.295D+00 0.128D+01
 Coeff-En:   0.000D+00 0.000D+00 0.100D+01
 Coeff:      0.172D-01-0.290D+00 0.127D+01
 Gap=     0.538 Goal=   None    Shift=    0.000
 RMSDP=2.15D-03 MaxDP=6.55D-03 DE=-2.34D-03 OVMax= 0.00D+00

 Cycle   4  Pass 1  IDiag  1:
 E= -6.83493290204824     Delta-E=       -0.000121347797 Rises=F Damp=F
 DIIS: error= 1.47D-04 at cycle   4 NSaved=   4.
 NSaved= 4 IEnMin= 4 EnMin= -6.83493290204824     IErMin= 4 ErrMin= 1.47D-04
 ErrMax= 1.47D-04  0.00D+00 EMaxC= 1.00D-01 BMatC= 5.18D-07 BMatP= 4.90D-05
 IDIUse=3 WtCom= 9.99D-01 WtEn= 1.47D-03
 Coeff-Com:  0.137D-02 0.190D-01-0.168D+00 0.115D+01
 Coeff-En:   0.000D+00 0.000D+00 0.000D+00 0.100D+01
 Coeff:      0.137D-02 0.189D-01-0.168D+00 0.115D+01
 Gap=     0.538 Goal=   None    Shift=    0.000
 RMSDP=1.86D-04 MaxDP=6.51D-04 DE=-1.21D-04 OVMax= 0.00D+00

 Cycle   5  Pass 1  IDiag  1:
 E= -6.83493384686778     Delta-E=       -0.000000944820 Rises=F Damp=F
 DIIS: error= 1.88D-05 at cycle   5 NSaved=   5.
 NSaved= 5 IEnMin= 5 EnMin= -6.83493384686778     IErMin= 5 ErrMin= 1.88D-05
 ErrMax= 1.88D-05  0.00D+00 EMaxC= 1.00D-01 BMatC= 6.81D-09 BMatP= 5.18D-07
 IDIUse=1 WtCom= 1.00D+00 WtEn= 0.00D+00
 Coeff-Com: -0.220D-03 0.263D-02-0.684D-02-0.984D-01 0.110D+01
 Coeff:     -0.220D-03 0.263D-02-0.684D-02-0.984D-01 0.110D+01
 Gap=     0.538 Goal=   None    Shift=    0.000
 RMSDP=1.74D-05 MaxDP=7.11D-05 DE=-9.45D-07 OVMax= 0.00D+00

 Cycle   6  Pass 1  IDiag  1:
 E= -6.83493385756673     Delta-E=       -0.000000010699 Rises=F Damp=F
 DIIS: error= 1.56D-06 at cycle   6 NSaved=   6.
 NSaved= 6 IEnMin= 6 EnMin= -6.83493385756673     IErMin= 6 ErrMin= 1.56D-06
 ErrMax= 1.56D-06  0.00D+00 EMaxC= 1.00D-01 BMatC= 6.77D-11 BMatP= 6.81D-09
 IDIUse=1 WtCom= 1.00D+00 WtEn= 0.00D+00
 Coeff-Com: -0.245D-04-0.382D-03 0.226D-02-0.502D-02-0.819D-01 0.109D+01
 Coeff:     -0.245D-04-0.382D-03 0.226D-02-0.502D-02-0.819D-01 0.109D+01
 Gap=     0.538 Goal=   None    Shift=    0.000
 RMSDP=1.85D-06 MaxDP=6.79D-06 DE=-1.07D-08 OVMax= 0.00D+00

 Cycle   7  Pass 1  IDiag  1:
 E= -6.83493385766516     Delta-E=       -0.000000000098 Rises=F Damp=F
 DIIS: error= 2.48D-07 at cycle   7 NSaved=   7.
 NSaved= 7 IEnMin= 7 EnMin= -6.83493385766516     IErMin= 7 ErrMin= 2.48D-07
 ErrMax= 2.48D-07  0.00D+00 EMaxC= 1.00D-01 BMatC= 8.46D-13 BMatP= 6.77D-11
 IDIUse=1 WtCom= 1.00D+00 WtEn= 0.00D+00
 Coeff-Com:  0.592D-05-0.386D-04 0.977D-04 0.110D-02-0.134D-01-0.255D-02
 Coeff-Com:  0.101D+01
 Coeff:      0.592D-05-0.386D-04 0.977D-04 0.110D-02-0.134D-01-0.255D-02
 Coeff:      0.101D+01
 Gap=     0.538 Goal=   None    Shift=    0.000
 RMSDP=1.64D-07 MaxDP=4.93D-07 DE=-9.84D-11 OVMax= 0.00D+00

 Cycle   8  Pass 1  IDiag  1:
 E= -6.83493385766664     Delta-E=       -0.000000000001 Rises=F Damp=F
 DIIS: error= 3.27D-08 at cycle   8 NSaved=   8.
 NSaved= 8 IEnMin= 8 EnMin= -6.83493385766664     IErMin= 8 ErrMin= 3.27D-08
 ErrMax= 3.27D-08  0.00D+00 EMaxC= 1.00D-01 BMatC= 2.27D-14 BMatP= 8.46D-13
 IDIUse=1 WtCom= 1.00D+00 WtEn= 0.00D+00
 Coeff-Com: -0.217D-06 0.105D-04-0.463D-04-0.216D-04 0.284D-02-0.237D-01
 Coeff-Com: -0.641D-01 0.109D+01
 Coeff:     -0.217D-06 0.105D-04-0.463D-04-0.216D-04 0.284D-02-0.237D-01
 Coeff:     -0.641D-01 0.109D+01
 Gap=     0.538 Goal=   None    Shift=    0.000
 RMSDP=2.18D-08 MaxDP=8.37D-08 DE=-1.49D-12 OVMax= 0.00D+00

 Cycle   9  Pass 1  IDiag  1:
 E= -6.83493385766658     Delta-E=        0.000000000000 Rises=F Damp=F
 DIIS: error= 2.25D-09 at cycle   9 NSaved=   9.
 NSaved= 9 IEnMin= 8 EnMin= -6.83493385766664     IErMin= 9 ErrMin= 2.25D-09
 ErrMax= 2.25D-09  0.00D+00 EMaxC= 1.00D-01 BMatC= 1.65D-16 BMatP= 2.27D-14
 IDIUse=1 WtCom= 1.00D+00 WtEn= 0.00D+00
 Coeff-Com: -0.306D-07-0.910D-06 0.489D-05-0.137D-04-0.156D-03 0.270D-02
 Coeff-Com: -0.293D-02-0.135D+00 0.114D+01
 Coeff:     -0.306D-07-0.910D-06 0.489D-05-0.137D-04-0.156D-03 0.270D-02
 Coeff:     -0.293D-02-0.135D+00 0.114D+01
 Gap=     0.538 Goal=   None    Shift=    0.000
 RMSDP=2.10D-09 MaxDP=9.73D-09 DE= 5.68D-14 OVMax= 0.00D+00

 SCF Done:  E(RHF) =  -6.83493385767     A.U. after    9 cycles
            NFock=  9  Conv=0.21D-08     -V/T= 1.5094
 KE= 1.341823819676D+01 PE=-8.335828705262D+01 EE= 2.950971423571D+01
 Leave Link  502 at Sun Dec  5 14:13:58 2021, MaxMem=   104857600 cpu:               0.1 elap:               0.2
 (Enter /usr/local/g16reva03/legacy_cpu/g16/l601.exe)
 Copying SCF densities to generalized density rwf, IOpCl= 0 IROHF=0.

 **********************************************************************

            Population analysis using the SCF density.

 **********************************************************************

 Alpha  occ. eigenvalues --   -1.06684  -1.01814  -0.94305  -0.83840  -0.70067
 Alpha  occ. eigenvalues --   -0.52629  -0.31151  -0.05541
 Alpha virt. eigenvalues --    0.48300   0.83133   1.23258   1.69235   2.21708
 Alpha virt. eigenvalues --    2.79404   3.36545   3.80895
          Condensed to atoms (all electrons):
               1          2          3          4          5          6
     1  H    0.979332   0.437275  -0.226368  -0.099121   0.016393   0.008829
     2  H    0.437275   0.616098   0.038242  -0.097994  -0.026477   0.003280
     3  H   -0.226368   0.038242   0.996459   0.493796  -0.194754  -0.103855
     4  H   -0.099121  -0.097994   0.493796   0.751175   0.047983  -0.133459
     5  H    0.016393  -0.026477  -0.194754   0.047983   0.942894   0.483165
     6  H    0.008829   0.003280  -0.103855  -0.133459   0.483165   0.818252
     7  H   -0.000622   0.002070   0.012416  -0.028194  -0.178579   0.060216
     8  H   -0.000399   0.000046   0.008977   0.006941  -0.103216  -0.151571
     9  H    0.000012  -0.000072  -0.000407   0.002210   0.010635  -0.029714
    10  H    0.000009  -0.000005  -0.000402  -0.000166   0.008989   0.008938
    11  H   -0.000000   0.000001   0.000006  -0.000077  -0.000291   0.002285
    12  H   -0.000000   0.000000   0.000009   0.000001  -0.000405  -0.000291
    13  H   -0.000000  -0.000000   0.000000   0.000001   0.000001  -0.000077
    14  H    0.000000  -0.000000  -0.000000   0.000000   0.000009   0.000006
    15  H    0.000000   0.000000  -0.000000  -0.000000   0.000000   0.000001
    16  H   -0.000000   0.000000   0.000000  -0.000000  -0.000000  -0.000000
               7          8          9         10         11         12
     1  H   -0.000622  -0.000399   0.000012   0.000009  -0.000000  -0.000000
     2  H    0.002070   0.000046  -0.000072  -0.000005   0.000001   0.000000
     3  H    0.012416   0.008977  -0.000407  -0.000402   0.000006   0.000009
     4  H   -0.028194   0.006941   0.002210  -0.000166  -0.000077   0.000001
     5  H   -0.178579  -0.103216   0.010635   0.008989  -0.000291  -0.000405
     6  H    0.060216  -0.151571  -0.029714   0.008938   0.002285  -0.000291
     7  H    0.899352   0.476257  -0.165140  -0.102720   0.008938   0.008989
     8  H    0.476257   0.861662   0.063991  -0.165140  -0.029714   0.010635
     9  H   -0.165140   0.063991   0.861662   0.476257  -0.151571  -0.103216
    10  H   -0.102720  -0.165140   0.476257   0.899352   0.060216  -0.178579
    11  H    0.008938  -0.029714  -0.151571   0.060216   0.818252   0.483165
    12  H    0.008989   0.010635  -0.103216  -0.178579   0.483165   0.942894
    13  H   -0.000166   0.002210   0.006941  -0.028194  -0.133459   0.047983
    14  H   -0.000402  -0.000407   0.008977   0.012416  -0.103855  -0.194754
    15  H   -0.000005  -0.000072   0.000046   0.002070   0.003280  -0.026477
    16  H    0.000009   0.000012  -0.000399  -0.000622   0.008829   0.016393
              13         14         15         16
     1  H   -0.000000   0.000000   0.000000  -0.000000
     2  H   -0.000000  -0.000000   0.000000   0.000000
     3  H    0.000000  -0.000000  -0.000000   0.000000
     4  H    0.000001   0.000000  -0.000000  -0.000000
     5  H    0.000001   0.000009   0.000000  -0.000000
     6  H   -0.000077   0.000006   0.000001  -0.000000
     7  H   -0.000166  -0.000402  -0.000005   0.000009
     8  H    0.002210  -0.000407  -0.000072   0.000012
     9  H    0.006941   0.008977   0.000046  -0.000399
    10  H   -0.028194   0.012416   0.002070  -0.000622
    11  H   -0.133459  -0.103855   0.003280   0.008829
    12  H    0.047983  -0.194754  -0.026477   0.016393
    13  H    0.751175   0.493796  -0.097994  -0.099121
    14  H    0.493796   0.996459   0.038242  -0.226368
    15  H   -0.097994   0.038242   0.616098   0.437275
    16  H   -0.099121  -0.226368   0.437275   0.979332
 Mulliken charges:
               1
     1  H   -0.115340
     2  H    0.027537
     3  H   -0.024118
     4  H    0.056903
     5  H   -0.006346
     6  H    0.033996
     7  H    0.007581
     8  H    0.019787
     9  H    0.019787
    10  H    0.007581
    11  H    0.033996
    12  H   -0.006346
    13  H    0.056903
    14  H   -0.024118
    15  H    0.027537
    16  H   -0.115340
 Sum of Mulliken charges =   0.00000
 Mulliken charges with hydrogens summed into heavy atoms:
               1
 Electronic spatial extent (au):  <R**2>=           1640.1182
 Charge=              0.0000 electrons
 Dipole moment (field-independent basis, Debye):
    X=              0.0000    Y=              0.0000    Z=              0.0000  Tot=              0.0000
 Quadrupole moment (field-independent basis, Debye-Ang):
   XX=            -12.9261   YY=            -12.9261   ZZ=            -36.0125
   XY=              0.0000   XZ=              0.0000   YZ=              0.0000
 Traceless Quadrupole moment (field-independent basis, Debye-Ang):
   XX=              7.6955   YY=              7.6955   ZZ=            -15.3910
   XY=              0.0000   XZ=              0.0000   YZ=              0.0000
 Octapole moment (field-independent basis, Debye-Ang**2):
  XXX=              0.0000  YYY=              0.0000  ZZZ=           -486.1690  XYY=              0.0000
  XXY=              0.0000  XXZ=            -58.1674  XZZ=              0.0000  YZZ=              0.0000
  YYZ=            -58.1674  XYZ=              0.0000
 Hexadecapole moment (field-independent basis, Debye-Ang**3):
 XXXX=             -9.7527 YYYY=             -9.7527 ZZZZ=          -5640.9634 XXXY=              0.0000
 XXXZ=              0.0000 YYYX=              0.0000 YYYZ=              0.0000 ZZZX=              0.0000
 ZZZY=              0.0000 XXYY=             -3.2509 XXZZ=           -370.6741 YYZZ=           -370.6741
 XXYZ=              0.0000 YYXZ=              0.0000 ZZXY=              0.0000
 N-N= 3.359540076249D+01 E-N=-8.335828704346D+01  KE= 1.341823819676D+01
 No NMR shielding tensors so no spin-rotation constants.
 Leave Link  601 at Sun Dec  5 14:13:58 2021, MaxMem=   104857600 cpu:               0.1 elap:               0.1
 (Enter /usr/local/g16reva03/legacy_cpu/g16/l9999.exe)
 1\1\GINC-USER2\SP\RHF\STO-3G\H16\MRAMIN02\05-Dec-2021\0\\#p rhf nosymm
  output=matrix int=noraf scf=conven\\h2-sto3g\\0,1\H\H,1,0.6\H,2,0.6,1
 ,180.\H,3,0.6,2,180.,1,0.,0\H,4,0.6,3,180.,1,0.,0\H,5,0.6,4,180.,1,0.,
 0\H,6,0.6,5,180.,1,0.,0\H,7,0.6,6,180.,1,0.,0\H,8,0.6,7,180.,1,0.,0\H,
 9,0.6,8,180.,1,0.,0\H,10,0.6,9,180.,1,0.,0\H,11,0.6,10,180.,1,0.,0\H,1
 2,0.6,11,180.,1,0.,0\H,13,0.6,12,180.,1,0.,0\H,14,0.6,13,180.,1,0.,0\H
 ,15,0.6,14,180.,1,0.,0\\Version=EM64L-G16RevA.03\HF=-6.8349339\RMSD=2.
 102e-09\Dipole=0.,0.,0.\Quadrupole=5.721398,5.721398,-11.442796,0.,0.,
 0.\PG=D*H [C*(H1H1H1H1H1H1H1H1.H1H1H1H1H1H1H1H1)]\\@


 ABALONE: AN EXPRESSION OF DISBELIEF.

 Writing WrtUnf unformatted file "h2-16.mat"
 Gaussian matrix elements                                         Version   2 NLab=11 Len12L=8 Len4L=8
 Write SHELL TO ATOM MAP                   from file     0 offset           0 length                  16 to matrix element file.
 Write SHELL TYPES                         from file     0 offset           0 length                  16 to matrix element file.
 Write NUMBER OF PRIMITIVES PER SHELL      from file     0 offset           0 length                  16 to matrix element file.
 Write PRIMITIVE EXPONENTS                 from file     0 offset           0 length                  48 to matrix element file.
 Write CONTRACTION COEFFICIENTS            from file     0 offset           0 length                  48 to matrix element file.
 Write P(S=P) CONTRACTION COEFFICIENTS     from file     0 offset           0 length                  48 to matrix element file.
 Write COORDINATES OF EACH SHELL           from file     0 offset           0 length                  48 to matrix element file.
 Write BONDS PER ATOM                      from file     0 offset           0 length                  16 to matrix element file.
 Write BONDED ATOMS                        from file     0 offset           0 length                  30 to matrix element file.
 Write BOND TYPES                          from file     0 offset           0 length                  30 to matrix element file.
 Write GAUSSIAN SCALARS                    from file   501 offset           0 to matrix element file.
 Write INTEGER ISO                         from file     0 offset           0 length                  16 to matrix element file.
 Write INTEGER SPIN                        from file     0 offset           0 length                  16 to matrix element file.
 Write REAL ZEFFECTIVE                     from file     0 offset           0 length                  16 to matrix element file.
 Write REAL GFACTOR                        from file     0 offset           0 length                  16 to matrix element file.
 Write REAL ZNUCLEAR                       from file     0 offset           0 length                  16 to matrix element file.
 Write NUCLEAR GRADIENT                    from file 10584 offset           0 length                  48 to matrix element file.
 Array NUCLEAR FORCE CONSTANTS              on  file 10585 does not exist.
 Write ELECTRIC DIPOLE MOMENT              from file     0 offset           0 length                   3 to matrix element file.
 Write OVERLAP                             from file   514 offset           0 length                 136 to matrix element file.
 Write CORE HAMILTONIAN ALPHA              from file   515 offset           0 length                 136 to matrix element file.
 Write CORE HAMILTONIAN BETA               from file   515 offset         136 length                 136 to matrix element file.
 Write KINETIC ENERGY                      from file   516 offset           0 length                 136 to matrix element file.
 Write ORTHOGONAL BASIS                    from file   685 offset           0 length                 256 to matrix element file.
 Write DIPOLE INTEGRALS                    from file   518 offset           0 length                 408 to matrix element file.
 Write DIP VEL INTEGRALS                   from file   572 offset           0 length                 408 to matrix element file.
 Write R X DEL INTEGRALS                   from file   572 offset         408 length                 408 to matrix element file.
 Write ALPHA ORBITAL ENERGIES              from file     0 offset           0 length                  16 to matrix element file.
 Write ALPHA MO COEFFICIENTS               from file 10524 offset           0 length                 256 to matrix element file.
 Write ALPHA DENSITY MATRIX                from file 10528 offset           0 length                 136 to matrix element file.
 Write ALPHA SCF DENSITY MATRIX            from file 10528 offset           0 length                 136 to matrix element file.
 Write ALPHA FOCK MATRIX                   from file 10536 offset           0 length                 136 to matrix element file.
 Write REGULAR 2E INTEGRALS                to matrix element file, NR=1 ITotal=        8278.
 Job cpu time:       0 days  0 hours  0 minutes  3.3 seconds.
 Elapsed time:       0 days  0 hours  0 minutes  4.0 seconds.
 File lengths (MBytes):  RWF=     72 Int=      4 D2E=      0 Chk=      8 Scr=      8
 Normal termination of Gaussian 16 at Sun Dec  5 14:13:58 2021.
