 Entering Gaussian System, Link 0=g16
 Input=h2-32.com
 Output=h2-32.log
 Initial command:
 /usr/local/g16reva03/legacy_cpu/g16/l1.exe "/scratch/global/g16/Gau-13098.inp" -scrdir="/scratch/global/g16/"
 Entering Link 1 = /usr/local/g16reva03/legacy_cpu/g16/l1.exe PID=     13099.
  
 Copyright (c) 1988,1990,1992,1993,1995,1998,2003,2009,2016,
            Gaussian, Inc.  All Rights Reserved.
  
 This is part of the Gaussian(R) 16 program.  It is based on
 the Gaussian(R) 09 system (copyright 2009, Gaussian, Inc.),
 the Gaussian(R) 03 system (copyright 2003, Gaussian, Inc.),
 the Gaussian(R) 98 system (copyright 1998, Gaussian, Inc.),
 the Gaussian(R) 94 system (copyright 1995, Gaussian, Inc.),
 the Gaussian 92(TM) system (copyright 1992, Gaussian, Inc.),
 the Gaussian 90(TM) system (copyright 1990, Gaussian, Inc.),
 the Gaussian 88(TM) system (copyright 1988, Gaussian, Inc.),
 the Gaussian 86(TM) system (copyright 1986, Carnegie Mellon
 University), and the Gaussian 82(TM) system (copyright 1983,
 Carnegie Mellon University). Gaussian is a federally registered
 trademark of Gaussian, Inc.
  
 This software contains proprietary and confidential information,
 including trade secrets, belonging to Gaussian, Inc.
  
 This software is provided under written license and may be
 used, copied, transmitted, or stored only in accord with that
 written license.
  
 The following legend is applicable only to US Government
 contracts under FAR:
  
                    RESTRICTED RIGHTS LEGEND
  
 Use, reproduction and disclosure by the US Government is
 subject to restrictions as set forth in subparagraphs (a)
 and (c) of the Commercial Computer Software - Restricted
 Rights clause in FAR 52.227-19.
  
 Gaussian, Inc.
 340 Quinnipiac St., Bldg. 40, Wallingford CT 06492
  
  
 ---------------------------------------------------------------
 Warning -- This program may not be used in any manner that
 competes with the business of Gaussian, Inc. or will provide
 assistance to any competitor of Gaussian, Inc.  The licensee
 of this program is prohibited from giving any competitor of
 Gaussian, Inc. access to this program.  By using this program,
 the user acknowledges that Gaussian, Inc. is engaged in the
 business of creating and licensing software in the field of
 computational chemistry and represents and warrants to the
 licensee that it is not a competitor of Gaussian, Inc. and that
 it will not use this program in any manner prohibited above.
 ---------------------------------------------------------------
  

 Cite this work as:
 Gaussian 16, Revision A.03,
 M. J. Frisch, G. W. Trucks, H. B. Schlegel, G. E. Scuseria, 
 M. A. Robb, J. R. Cheeseman, G. Scalmani, V. Barone, 
 G. A. Petersson, H. Nakatsuji, X. Li, M. Caricato, A. V. Marenich, 
 J. Bloino, B. G. Janesko, R. Gomperts, B. Mennucci, H. P. Hratchian, 
 J. V. Ortiz, A. F. Izmaylov, J. L. Sonnenberg, D. Williams-Young, 
 F. Ding, F. Lipparini, F. Egidi, J. Goings, B. Peng, A. Petrone, 
 T. Henderson, D. Ranasinghe, V. G. Zakrzewski, J. Gao, N. Rega, 
 G. Zheng, W. Liang, M. Hada, M. Ehara, K. Toyota, R. Fukuda, 
 J. Hasegawa, M. Ishida, T. Nakajima, Y. Honda, O. Kitao, H. Nakai, 
 T. Vreven, K. Throssell, J. A. Montgomery, Jr., J. E. Peralta, 
 F. Ogliaro, M. J. Bearpark, J. J. Heyd, E. N. Brothers, K. N. Kudin, 
 V. N. Staroverov, T. A. Keith, R. Kobayashi, J. Normand, 
 K. Raghavachari, A. P. Rendell, J. C. Burant, S. S. Iyengar, 
 J. Tomasi, M. Cossi, J. M. Millam, M. Klene, C. Adamo, R. Cammi, 
 J. W. Ochterski, R. L. Martin, K. Morokuma, O. Farkas, 
 J. B. Foresman, and D. J. Fox, Gaussian, Inc., Wallingford CT, 2016.
 
 ******************************************
 Gaussian 16:  EM64L-G16RevA.03 25-Dec-2016
                 5-Dec-2021 
 ******************************************
 ------------------------------------------------
 #p rhf nosymm output=matrix int=noraf scf=conven
 ------------------------------------------------
 1/38=1,172=1/1;
 2/12=2,15=1,17=6,18=5,40=1/2;
 3/25=20,28=1,30=1,116=1/1,2,3,8,20;
 4//1;
 5/5=1,29=1/2;
 6/7=2,8=2,9=2,10=2,28=1/1;
 99/5=1,6=100000,9=1/99;
 Leave Link    1 at Sun Dec  5 15:25:03 2021, MaxMem=           0 cpu:               0.1 elap:               0.6
 (Enter /usr/local/g16reva03/legacy_cpu/g16/l101.exe)
 --------
 h2-sto3g
 --------
 Symbolic Z-matrix:
 Charge =  0 Multiplicity = 1
 H
 H                    1     0.6 
 H                    2     0.6      1     180. 
 H                    3     0.6      2     180.     1     0.       0
 H                    4     0.6      3     180.     1     0.       0
 H                    5     0.6      4     180.     1     0.       0
 H                    6     0.6      5     180.     1     0.       0
 H                    7     0.6      6     180.     1     0.       0
 H                    8     0.6      7     180.     1     0.       0
 H                    9     0.6      8     180.     1     0.       0
 H                    10    0.6      9     180.     1     0.       0
 H                    11    0.6      10    180.     1     0.       0
 H                    12    0.6      11    180.     1     0.       0
 H                    13    0.6      12    180.     1     0.       0
 H                    14    0.6      13    180.     1     0.       0
 H                    15    0.6      14    180.     1     0.       0
 H                    16    0.6      15    180.     1     0.       0
 H                    17    0.6      16    180.     1     0.       0
 H                    18    0.6      17    180.     1     0.       0
 H                    19    0.6      18    180.     1     0.       0
 H                    20    0.6      19    180.     1     0.       0
 H                    21    0.6      20    180.     1     0.       0
 H                    22    0.6      21    180.     1     0.       0
 H                    23    0.6      22    180.     1     0.       0
 H                    24    0.6      23    180.     1     0.       0
 H                    25    0.6      24    180.     1     0.       0
 H                    26    0.6      25    180.     1     0.       0
 H                    27    0.6      26    180.     1     0.       0
 H                    28    0.6      27    180.     1     0.       0
 H                    29    0.6      28    180.     1     0.       0
 H                    30    0.6      29    180.     1     0.       0
 H                    31    0.6      30    180.     1     0.       0
 
 ITRead=  0  0  0  0  0  0  0  0  0  0  0  0  0  0  0  0  0  0  0  0
 ITRead=  0  0  0  0  0  0  0  0  0  0  0  0
 MicOpt= -1 -1 -1 -1 -1 -1 -1 -1 -1 -1 -1 -1 -1 -1 -1 -1 -1 -1 -1 -1
 MicOpt= -1 -1 -1 -1 -1 -1 -1 -1 -1 -1 -1 -1
 NAtoms=     32 NQM=       32 NQMF=       0 NMMI=      0 NMMIF=      0
                NMic=       0 NMicF=      0.
                    Isotopes and Nuclear Properties:
 (Nuclear quadrupole moments (NQMom) in fm**2, nuclear magnetic moments (NMagM)
  in nuclear magnetons)

  Atom         1           2           3           4           5           6           7           8           9          10
 IAtWgt=           1           1           1           1           1           1           1           1           1           1
 AtmWgt=   1.0078250   1.0078250   1.0078250   1.0078250   1.0078250   1.0078250   1.0078250   1.0078250   1.0078250   1.0078250
 NucSpn=           1           1           1           1           1           1           1           1           1           1
 AtZEff=  -0.0000000  -0.0000000  -0.0000000  -0.0000000  -0.0000000  -0.0000000  -0.0000000  -0.0000000  -0.0000000  -0.0000000
 NQMom=    0.0000000   0.0000000   0.0000000   0.0000000   0.0000000   0.0000000   0.0000000   0.0000000   0.0000000   0.0000000
 NMagM=    2.7928460   2.7928460   2.7928460   2.7928460   2.7928460   2.7928460   2.7928460   2.7928460   2.7928460   2.7928460
 AtZNuc=   1.0000000   1.0000000   1.0000000   1.0000000   1.0000000   1.0000000   1.0000000   1.0000000   1.0000000   1.0000000

  Atom        11          12          13          14          15          16          17          18          19          20
 IAtWgt=           1           1           1           1           1           1           1           1           1           1
 AtmWgt=   1.0078250   1.0078250   1.0078250   1.0078250   1.0078250   1.0078250   1.0078250   1.0078250   1.0078250   1.0078250
 NucSpn=           1           1           1           1           1           1           1           1           1           1
 AtZEff=  -0.0000000  -0.0000000  -0.0000000  -0.0000000  -0.0000000  -0.0000000  -0.0000000  -0.0000000  -0.0000000  -0.0000000
 NQMom=    0.0000000   0.0000000   0.0000000   0.0000000   0.0000000   0.0000000   0.0000000   0.0000000   0.0000000   0.0000000
 NMagM=    2.7928460   2.7928460   2.7928460   2.7928460   2.7928460   2.7928460   2.7928460   2.7928460   2.7928460   2.7928460
 AtZNuc=   1.0000000   1.0000000   1.0000000   1.0000000   1.0000000   1.0000000   1.0000000   1.0000000   1.0000000   1.0000000

  Atom        21          22          23          24          25          26          27          28          29          30
 IAtWgt=           1           1           1           1           1           1           1           1           1           1
 AtmWgt=   1.0078250   1.0078250   1.0078250   1.0078250   1.0078250   1.0078250   1.0078250   1.0078250   1.0078250   1.0078250
 NucSpn=           1           1           1           1           1           1           1           1           1           1
 AtZEff=  -0.0000000  -0.0000000  -0.0000000  -0.0000000  -0.0000000  -0.0000000  -0.0000000  -0.0000000  -0.0000000  -0.0000000
 NQMom=    0.0000000   0.0000000   0.0000000   0.0000000   0.0000000   0.0000000   0.0000000   0.0000000   0.0000000   0.0000000
 NMagM=    2.7928460   2.7928460   2.7928460   2.7928460   2.7928460   2.7928460   2.7928460   2.7928460   2.7928460   2.7928460
 AtZNuc=   1.0000000   1.0000000   1.0000000   1.0000000   1.0000000   1.0000000   1.0000000   1.0000000   1.0000000   1.0000000

  Atom        31          32
 IAtWgt=           1           1
 AtmWgt=   1.0078250   1.0078250
 NucSpn=           1           1
 AtZEff=  -0.0000000  -0.0000000
 NQMom=    0.0000000   0.0000000
 NMagM=    2.7928460   2.7928460
 AtZNuc=   1.0000000   1.0000000
 Leave Link  101 at Sun Dec  5 15:25:03 2021, MaxMem=   104857600 cpu:               0.2 elap:               0.2
 (Enter /usr/local/g16reva03/legacy_cpu/g16/l202.exe)
                          Input orientation:                          
 ---------------------------------------------------------------------
 Center     Atomic      Atomic             Coordinates (Angstroms)
 Number     Number       Type             X           Y           Z
 ---------------------------------------------------------------------
      1          1           0        0.000000    0.000000    0.000000
      2          1           0        0.000000    0.000000    0.600000
      3          1           0        0.000000    0.000000    1.200000
      4          1           0        0.000000    0.000000    1.800000
      5          1           0        0.000000    0.000000    2.400000
      6          1           0        0.000000    0.000000    3.000000
      7          1           0        0.000000    0.000000    3.600000
      8          1           0        0.000000    0.000000    4.200000
      9          1           0        0.000000    0.000000    4.800000
     10          1           0        0.000000    0.000000    5.400000
     11          1           0        0.000000    0.000000    6.000000
     12          1           0        0.000000    0.000000    6.600000
     13          1           0        0.000000    0.000000    7.200000
     14          1           0        0.000000    0.000000    7.800000
     15          1           0        0.000000    0.000000    8.400000
     16          1           0        0.000000    0.000000    9.000000
     17          1           0        0.000000    0.000000    9.600000
     18          1           0        0.000000    0.000000   10.200000
     19          1           0        0.000000    0.000000   10.800000
     20          1           0        0.000000    0.000000   11.400000
     21          1           0        0.000000    0.000000   12.000000
     22          1           0        0.000000    0.000000   12.600000
     23          1           0        0.000000    0.000000   13.200000
     24          1           0        0.000000    0.000000   13.800000
     25          1           0        0.000000    0.000000   14.400000
     26          1           0        0.000000    0.000000   15.000000
     27          1           0        0.000000    0.000000   15.600000
     28          1           0        0.000000    0.000000   16.200000
     29          1           0        0.000000    0.000000   16.800000
     30          1           0        0.000000    0.000000   17.400000
     31          1           0        0.000000    0.000000   18.000000
     32          1           0        0.000000    0.000000   18.600000
 ---------------------------------------------------------------------
                    Distance matrix (angstroms):
                    1          2          3          4          5
     1  H    0.000000
     2  H    0.600000   0.000000
     3  H    1.200000   0.600000   0.000000
     4  H    1.800000   1.200000   0.600000   0.000000
     5  H    2.400000   1.800000   1.200000   0.600000   0.000000
     6  H    3.000000   2.400000   1.800000   1.200000   0.600000
     7  H    3.600000   3.000000   2.400000   1.800000   1.200000
     8  H    4.200000   3.600000   3.000000   2.400000   1.800000
     9  H    4.800000   4.200000   3.600000   3.000000   2.400000
    10  H    5.400000   4.800000   4.200000   3.600000   3.000000
    11  H    6.000000   5.400000   4.800000   4.200000   3.600000
    12  H    6.600000   6.000000   5.400000   4.800000   4.200000
    13  H    7.200000   6.600000   6.000000   5.400000   4.800000
    14  H    7.800000   7.200000   6.600000   6.000000   5.400000
    15  H    8.400000   7.800000   7.200000   6.600000   6.000000
    16  H    9.000000   8.400000   7.800000   7.200000   6.600000
    17  H    9.600000   9.000000   8.400000   7.800000   7.200000
    18  H   10.200000   9.600000   9.000000   8.400000   7.800000
    19  H   10.800000  10.200000   9.600000   9.000000   8.400000
    20  H   11.400000  10.800000  10.200000   9.600000   9.000000
    21  H   12.000000  11.400000  10.800000  10.200000   9.600000
    22  H   12.600000  12.000000  11.400000  10.800000  10.200000
    23  H   13.200000  12.600000  12.000000  11.400000  10.800000
    24  H   13.800000  13.200000  12.600000  12.000000  11.400000
    25  H   14.400000  13.800000  13.200000  12.600000  12.000000
    26  H   15.000000  14.400000  13.800000  13.200000  12.600000
    27  H   15.600000  15.000000  14.400000  13.800000  13.200000
    28  H   16.200000  15.600000  15.000000  14.400000  13.800000
    29  H   16.800000  16.200000  15.600000  15.000000  14.400000
    30  H   17.400000  16.800000  16.200000  15.600000  15.000000
    31  H   18.000000  17.400000  16.800000  16.200000  15.600000
    32  H   18.600000  18.000000  17.400000  16.800000  16.200000
                    6          7          8          9         10
     6  H    0.000000
     7  H    0.600000   0.000000
     8  H    1.200000   0.600000   0.000000
     9  H    1.800000   1.200000   0.600000   0.000000
    10  H    2.400000   1.800000   1.200000   0.600000   0.000000
    11  H    3.000000   2.400000   1.800000   1.200000   0.600000
    12  H    3.600000   3.000000   2.400000   1.800000   1.200000
    13  H    4.200000   3.600000   3.000000   2.400000   1.800000
    14  H    4.800000   4.200000   3.600000   3.000000   2.400000
    15  H    5.400000   4.800000   4.200000   3.600000   3.000000
    16  H    6.000000   5.400000   4.800000   4.200000   3.600000
    17  H    6.600000   6.000000   5.400000   4.800000   4.200000
    18  H    7.200000   6.600000   6.000000   5.400000   4.800000
    19  H    7.800000   7.200000   6.600000   6.000000   5.400000
    20  H    8.400000   7.800000   7.200000   6.600000   6.000000
    21  H    9.000000   8.400000   7.800000   7.200000   6.600000
    22  H    9.600000   9.000000   8.400000   7.800000   7.200000
    23  H   10.200000   9.600000   9.000000   8.400000   7.800000
    24  H   10.800000  10.200000   9.600000   9.000000   8.400000
    25  H   11.400000  10.800000  10.200000   9.600000   9.000000
    26  H   12.000000  11.400000  10.800000  10.200000   9.600000
    27  H   12.600000  12.000000  11.400000  10.800000  10.200000
    28  H   13.200000  12.600000  12.000000  11.400000  10.800000
    29  H   13.800000  13.200000  12.600000  12.000000  11.400000
    30  H   14.400000  13.800000  13.200000  12.600000  12.000000
    31  H   15.000000  14.400000  13.800000  13.200000  12.600000
    32  H   15.600000  15.000000  14.400000  13.800000  13.200000
                   11         12         13         14         15
    11  H    0.000000
    12  H    0.600000   0.000000
    13  H    1.200000   0.600000   0.000000
    14  H    1.800000   1.200000   0.600000   0.000000
    15  H    2.400000   1.800000   1.200000   0.600000   0.000000
    16  H    3.000000   2.400000   1.800000   1.200000   0.600000
    17  H    3.600000   3.000000   2.400000   1.800000   1.200000
    18  H    4.200000   3.600000   3.000000   2.400000   1.800000
    19  H    4.800000   4.200000   3.600000   3.000000   2.400000
    20  H    5.400000   4.800000   4.200000   3.600000   3.000000
    21  H    6.000000   5.400000   4.800000   4.200000   3.600000
    22  H    6.600000   6.000000   5.400000   4.800000   4.200000
    23  H    7.200000   6.600000   6.000000   5.400000   4.800000
    24  H    7.800000   7.200000   6.600000   6.000000   5.400000
    25  H    8.400000   7.800000   7.200000   6.600000   6.000000
    26  H    9.000000   8.400000   7.800000   7.200000   6.600000
    27  H    9.600000   9.000000   8.400000   7.800000   7.200000
    28  H   10.200000   9.600000   9.000000   8.400000   7.800000
    29  H   10.800000  10.200000   9.600000   9.000000   8.400000
    30  H   11.400000  10.800000  10.200000   9.600000   9.000000
    31  H   12.000000  11.400000  10.800000  10.200000   9.600000
    32  H   12.600000  12.000000  11.400000  10.800000  10.200000
                   16         17         18         19         20
    16  H    0.000000
    17  H    0.600000   0.000000
    18  H    1.200000   0.600000   0.000000
    19  H    1.800000   1.200000   0.600000   0.000000
    20  H    2.400000   1.800000   1.200000   0.600000   0.000000
    21  H    3.000000   2.400000   1.800000   1.200000   0.600000
    22  H    3.600000   3.000000   2.400000   1.800000   1.200000
    23  H    4.200000   3.600000   3.000000   2.400000   1.800000
    24  H    4.800000   4.200000   3.600000   3.000000   2.400000
    25  H    5.400000   4.800000   4.200000   3.600000   3.000000
    26  H    6.000000   5.400000   4.800000   4.200000   3.600000
    27  H    6.600000   6.000000   5.400000   4.800000   4.200000
    28  H    7.200000   6.600000   6.000000   5.400000   4.800000
    29  H    7.800000   7.200000   6.600000   6.000000   5.400000
    30  H    8.400000   7.800000   7.200000   6.600000   6.000000
    31  H    9.000000   8.400000   7.800000   7.200000   6.600000
    32  H    9.600000   9.000000   8.400000   7.800000   7.200000
                   21         22         23         24         25
    21  H    0.000000
    22  H    0.600000   0.000000
    23  H    1.200000   0.600000   0.000000
    24  H    1.800000   1.200000   0.600000   0.000000
    25  H    2.400000   1.800000   1.200000   0.600000   0.000000
    26  H    3.000000   2.400000   1.800000   1.200000   0.600000
    27  H    3.600000   3.000000   2.400000   1.800000   1.200000
    28  H    4.200000   3.600000   3.000000   2.400000   1.800000
    29  H    4.800000   4.200000   3.600000   3.000000   2.400000
    30  H    5.400000   4.800000   4.200000   3.600000   3.000000
    31  H    6.000000   5.400000   4.800000   4.200000   3.600000
    32  H    6.600000   6.000000   5.400000   4.800000   4.200000
                   26         27         28         29         30
    26  H    0.000000
    27  H    0.600000   0.000000
    28  H    1.200000   0.600000   0.000000
    29  H    1.800000   1.200000   0.600000   0.000000
    30  H    2.400000   1.800000   1.200000   0.600000   0.000000
    31  H    3.000000   2.400000   1.800000   1.200000   0.600000
    32  H    3.600000   3.000000   2.400000   1.800000   1.200000
                   31         32
    31  H    0.000000
    32  H    0.600000   0.000000
 Symmetry turned off by external request.
 Stoichiometry    H32
 Framework group  D*H[C*(HHHHHHHHHHHHHHHH.HHHHHHHHHHHHHHHH)]
 Deg. of freedom    16
 Full point group                 D*H     NOp   8
 Rotational constants (GHZ):           0.0000000           0.5106051           0.5106051
 Leave Link  202 at Sun Dec  5 15:25:03 2021, MaxMem=   104857600 cpu:               0.1 elap:               0.1
 (Enter /usr/local/g16reva03/legacy_cpu/g16/l301.exe)
 Standard basis: STO-3G (5D, 7F)
 Ernie: Thresh=  0.10000D-02 Tol=  0.10000D-05 Strict=F.
    32 basis functions,    96 primitive gaussians,    32 cartesian basis functions
    16 alpha electrons       16 beta electrons
       nuclear repulsion energy        86.3192510471 Hartrees.
 IExCor=    0 DFT=F Ex=HF Corr=None ExCW=0 ScaHFX=  1.000000
 ScaDFX=  1.000000  1.000000  1.000000  1.000000 ScalE2=  1.000000  1.000000
 IRadAn=      5 IRanWt=     -1 IRanGd=            0 ICorTp=0 IEmpDi=  4
 NAtoms=   32 NActive=   32 NUniq=   32 SFac= 1.00D+00 NAtFMM=   60 NAOKFM=F Big=F
 Integral buffers will be    131072 words long.
 Regular integral format.
 Two-electron integral symmetry is turned off.
 Leave Link  301 at Sun Dec  5 15:25:03 2021, MaxMem=   104857600 cpu:               0.1 elap:               0.1
 (Enter /usr/local/g16reva03/legacy_cpu/g16/l302.exe)
 NPDir=0 NMtPBC=     1 NCelOv=     1 NCel=       1 NClECP=     1 NCelD=      1
         NCelK=      1 NCelE2=     1 NClLst=     1 CellRange=     0.0.
 One-electron integrals computed using PRISM.
 NBasis=    32 RedAO= T EigKep=  3.40D-02  NBF=    32
 NBsUse=    32 1.00D-06 EigRej= -1.00D+00 NBFU=    32
 Leave Link  302 at Sun Dec  5 15:25:03 2021, MaxMem=   104857600 cpu:               0.1 elap:               0.1
 (Enter /usr/local/g16reva03/legacy_cpu/g16/l303.exe)
 DipDrv:  MaxL=1.
 Leave Link  303 at Sun Dec  5 15:25:03 2021, MaxMem=   104857600 cpu:               0.1 elap:               0.1
 (Enter /usr/local/g16reva03/legacy_cpu/g16/l308.exe)
 Leave Link  308 at Sun Dec  5 15:25:03 2021, MaxMem=   104857600 cpu:               0.1 elap:               0.1
 (Enter /usr/local/g16reva03/legacy_cpu/g16/l320.exe)
 Enter DskPsm, NBasis=  32 NBas6D=  32 NShell=  32 IDoSP=4.
 Out2e will use a cutoff of  1.00D-10
 FoFCou: FMM=F IPFlag=           0 FMFlag=           0 FMFlg1=           0
         NFxFlg=           0 DoJE=F BraDBF=F KetDBF=F FulRan=T
         wScrn=  0.000000 ICntrl=       600 IOpCl=  9 I1Cent=           0 NGrid=           0
         NMat0=    0 NMatS0=      0 NMatT0=    0 NMatD0=    0 NMtDS0=    0 NMtDT0=    0
 Symmetry not used in FoFCou.
        52053 integrals produced for a total of        52053.
 Leave Link  320 at Sun Dec  5 15:25:04 2021, MaxMem=   104857600 cpu:               0.2 elap:               0.2
 (Enter /usr/local/g16reva03/legacy_cpu/g16/l401.exe)
 ExpMin= 1.69D-01 ExpMax= 3.43D+00 ExpMxC= 3.43D+00 IAcc=3 IRadAn=         5 AccDes= 0.00D+00
 Harris functional with IExCor=  205 and IRadAn=       5 diagonalized for initial guess.
 HarFok:  IExCor=  205 AccDes= 0.00D+00 IRadAn=         5 IDoV= 1 UseB2=F ITyADJ=14
 ICtDFT=  3500011 ScaDFX=  1.000000  1.000000  1.000000  1.000000
 FoFCou: FMM=F IPFlag=           0 FMFlag=      100000 FMFlg1=           0
         NFxFlg=           0 DoJE=T BraDBF=F KetDBF=T FulRan=T
         wScrn=  0.000000 ICntrl=       500 IOpCl=  0 I1Cent=   200000004 NGrid=           0
         NMat0=    1 NMatS0=      1 NMatT0=    0 NMatD0=    1 NMtDS0=    0 NMtDT0=    0
 Symmetry not used in FoFCou.
 Harris En= -15.1860907530646    
 JPrj=0 DoOrth=F DoCkMO=F.
 Leave Link  401 at Sun Dec  5 15:25:09 2021, MaxMem=   104857600 cpu:               5.4 elap:               5.4
 (Enter /usr/local/g16reva03/legacy_cpu/g16/l502.exe)
 Two-electron integral symmetry not used.
 Closed shell SCF:
 Using DIIS extrapolation, IDIIS=  1040.
 Unsorted integral processing.
 NGot=   104857600 LenX=   104592020 LenY=   104590555
 Requested convergence on RMS density matrix=1.00D-08 within 128 cycles.
 Requested convergence on MAX density matrix=1.00D-06.
 Requested convergence on             energy=1.00D-06.
 No special actions if energy rises.

 Cycle   1  Pass 1  IDiag  1:
 E= -13.3388167339808    
 DIIS: error= 1.41D-02 at cycle   1 NSaved=   1.
 NSaved= 1 IEnMin= 1 EnMin= -13.3388167339808     IErMin= 1 ErrMin= 1.41D-02
 ErrMax= 1.41D-02  0.00D+00 EMaxC= 1.00D-01 BMatC= 9.06D-03 BMatP= 9.06D-03
 IDIUse=3 WtCom= 8.59D-01 WtEn= 1.41D-01
 Coeff-Com:  0.100D+01
 Coeff-En:   0.100D+01
 Coeff:      0.100D+01
 Gap=     0.300 Goal=   None    Shift=    0.000
 GapD=    0.300 DampG=1.000 DampE=0.500 DampFc=0.5000 IDamp=-1.
 Damping current iteration by 5.00D-01
 RMSDP=1.17D-02 MaxDP=4.29D-02              OVMax= 0.00D+00

 Cycle   2  Pass 1  IDiag  1:
 E= -13.3494166142218     Delta-E=       -0.010599880241 Rises=F Damp=T
 DIIS: error= 1.04D-02 at cycle   2 NSaved=   2.
 NSaved= 2 IEnMin= 2 EnMin= -13.3494166142218     IErMin= 2 ErrMin= 1.04D-02
 ErrMax= 1.04D-02  0.00D+00 EMaxC= 1.00D-01 BMatC= 4.23D-03 BMatP= 9.06D-03
 IDIUse=3 WtCom= 8.96D-01 WtEn= 1.04D-01
 Coeff-Com: -0.168D+01 0.268D+01
 Coeff-En:   0.000D+00 0.100D+01
 Coeff:     -0.150D+01 0.250D+01
 Gap=     0.333 Goal=   None    Shift=    0.000
 RMSDP=1.28D-02 MaxDP=3.64D-02 DE=-1.06D-02 OVMax= 0.00D+00

 Cycle   3  Pass 1  IDiag  1:
 E= -13.3688132899688     Delta-E=       -0.019396675747 Rises=F Damp=F
 DIIS: error= 3.08D-03 at cycle   3 NSaved=   3.
 NSaved= 3 IEnMin= 3 EnMin= -13.3688132899688     IErMin= 3 ErrMin= 3.08D-03
 ErrMax= 3.08D-03  0.00D+00 EMaxC= 1.00D-01 BMatC= 2.29D-04 BMatP= 4.23D-03
 IDIUse=3 WtCom= 9.69D-01 WtEn= 3.08D-02
 Coeff-Com:  0.543D+00-0.104D+01 0.150D+01
 Coeff-En:   0.000D+00 0.000D+00 0.100D+01
 Coeff:      0.526D+00-0.101D+01 0.148D+01
 Gap=     0.352 Goal=   None    Shift=    0.000
 RMSDP=3.78D-03 MaxDP=1.34D-02 DE=-1.94D-02 OVMax= 0.00D+00

 Cycle   4  Pass 1  IDiag  1:
 E= -13.3696994944467     Delta-E=       -0.000886204478 Rises=F Damp=F
 DIIS: error= 6.01D-04 at cycle   4 NSaved=   4.
 NSaved= 4 IEnMin= 4 EnMin= -13.3696994944467     IErMin= 4 ErrMin= 6.01D-04
 ErrMax= 6.01D-04  0.00D+00 EMaxC= 1.00D-01 BMatC= 8.08D-06 BMatP= 2.29D-04
 IDIUse=3 WtCom= 9.94D-01 WtEn= 6.01D-03
 Coeff-Com:  0.400D-01-0.399D-01-0.173D+00 0.117D+01
 Coeff-En:   0.000D+00 0.000D+00 0.000D+00 0.100D+01
 Coeff:      0.397D-01-0.397D-01-0.172D+00 0.117D+01
 Gap=     0.354 Goal=   None    Shift=    0.000
 RMSDP=5.58D-04 MaxDP=2.42D-03 DE=-8.86D-04 OVMax= 0.00D+00

 Cycle   5  Pass 1  IDiag  1:
 E= -13.3697232882803     Delta-E=       -0.000023793834 Rises=F Damp=F
 DIIS: error= 1.27D-04 at cycle   5 NSaved=   5.
 NSaved= 5 IEnMin= 5 EnMin= -13.3697232882803     IErMin= 5 ErrMin= 1.27D-04
 ErrMax= 1.27D-04  0.00D+00 EMaxC= 1.00D-01 BMatC= 3.65D-07 BMatP= 8.08D-06
 IDIUse=3 WtCom= 9.99D-01 WtEn= 1.27D-03
 Coeff-Com: -0.326D-01 0.604D-01-0.818D-01-0.206D-01 0.107D+01
 Coeff-En:   0.000D+00 0.000D+00 0.000D+00 0.000D+00 0.100D+01
 Coeff:     -0.326D-01 0.603D-01-0.817D-01-0.206D-01 0.107D+01
 Gap=     0.355 Goal=   None    Shift=    0.000
 RMSDP=1.18D-04 MaxDP=5.21D-04 DE=-2.38D-05 OVMax= 0.00D+00

 Cycle   6  Pass 1  IDiag  1:
 E= -13.3697242636231     Delta-E=       -0.000000975343 Rises=F Damp=F
 DIIS: error= 1.75D-05 at cycle   6 NSaved=   6.
 NSaved= 6 IEnMin= 6 EnMin= -13.3697242636231     IErMin= 6 ErrMin= 1.75D-05
 ErrMax= 1.75D-05  0.00D+00 EMaxC= 1.00D-01 BMatC= 1.07D-08 BMatP= 3.65D-07
 IDIUse=1 WtCom= 1.00D+00 WtEn= 0.00D+00
 Coeff-Com:  0.141D-02-0.351D-02 0.105D-01-0.373D-01-0.894D-01 0.112D+01
 Coeff:      0.141D-02-0.351D-02 0.105D-01-0.373D-01-0.894D-01 0.112D+01
 Gap=     0.355 Goal=   None    Shift=    0.000
 RMSDP=1.81D-05 MaxDP=9.29D-05 DE=-9.75D-07 OVMax= 0.00D+00

 Cycle   7  Pass 1  IDiag  1:
 E= -13.3697242900038     Delta-E=       -0.000000026381 Rises=F Damp=F
 DIIS: error= 3.48D-06 at cycle   7 NSaved=   7.
 NSaved= 7 IEnMin= 7 EnMin= -13.3697242900038     IErMin= 7 ErrMin= 3.48D-06
 ErrMax= 3.48D-06  0.00D+00 EMaxC= 1.00D-01 BMatC= 2.83D-10 BMatP= 1.07D-08
 IDIUse=1 WtCom= 1.00D+00 WtEn= 0.00D+00
 Coeff-Com:  0.104D-02-0.188D-02 0.237D-02 0.132D-02-0.343D-01-0.976D-02
 Coeff-Com:  0.104D+01
 Coeff:      0.104D-02-0.188D-02 0.237D-02 0.132D-02-0.343D-01-0.976D-02
 Coeff:      0.104D+01
 Gap=     0.355 Goal=   None    Shift=    0.000
 RMSDP=2.29D-06 MaxDP=1.08D-05 DE=-2.64D-08 OVMax= 0.00D+00

 Cycle   8  Pass 1  IDiag  1:
 E= -13.3697242905350     Delta-E=       -0.000000000531 Rises=F Damp=F
 DIIS: error= 5.16D-07 at cycle   8 NSaved=   8.
 NSaved= 8 IEnMin= 8 EnMin= -13.3697242905350     IErMin= 8 ErrMin= 5.16D-07
 ErrMax= 5.16D-07  0.00D+00 EMaxC= 1.00D-01 BMatC= 7.86D-12 BMatP= 2.83D-10
 IDIUse=1 WtCom= 1.00D+00 WtEn= 0.00D+00
 Coeff-Com: -0.108D-03 0.213D-03-0.398D-03 0.111D-02 0.331D-02-0.299D-01
 Coeff-Com: -0.549D-01 0.108D+01
 Coeff:     -0.108D-03 0.213D-03-0.398D-03 0.111D-02 0.331D-02-0.299D-01
 Coeff:     -0.549D-01 0.108D+01
 Gap=     0.355 Goal=   None    Shift=    0.000
 RMSDP=2.90D-07 MaxDP=1.24D-06 DE=-5.31D-10 OVMax= 0.00D+00

 Cycle   9  Pass 1  IDiag  1:
 E= -13.3697242905489     Delta-E=       -0.000000000014 Rises=F Damp=F
 DIIS: error= 6.59D-08 at cycle   9 NSaved=   9.
 NSaved= 9 IEnMin= 9 EnMin= -13.3697242905489     IErMin= 9 ErrMin= 6.59D-08
 ErrMax= 6.59D-08  0.00D+00 EMaxC= 1.00D-01 BMatC= 2.13D-13 BMatP= 7.86D-12
 IDIUse=1 WtCom= 1.00D+00 WtEn= 0.00D+00
 Coeff-Com: -0.661D-05 0.105D-04-0.101D-05-0.131D-03 0.125D-03 0.464D-02
 Coeff-Com: -0.164D-01-0.150D+00 0.116D+01
 Coeff:     -0.661D-05 0.105D-04-0.101D-05-0.131D-03 0.125D-03 0.464D-02
 Coeff:     -0.164D-01-0.150D+00 0.116D+01
 Gap=     0.355 Goal=   None    Shift=    0.000
 RMSDP=5.77D-08 MaxDP=2.80D-07 DE=-1.39D-11 OVMax= 0.00D+00

 Cycle  10  Pass 1  IDiag  1:
 E= -13.3697242905493     Delta-E=       -0.000000000000 Rises=F Damp=F
 DIIS: error= 1.28D-08 at cycle  10 NSaved=  10.
 NSaved=10 IEnMin=10 EnMin= -13.3697242905493     IErMin=10 ErrMin= 1.28D-08
 ErrMax= 1.28D-08  0.00D+00 EMaxC= 1.00D-01 BMatC= 5.44D-15 BMatP= 2.13D-13
 IDIUse=1 WtCom= 1.00D+00 WtEn= 0.00D+00
 Coeff-Com:  0.433D-05-0.806D-05 0.113D-04-0.474D-05-0.154D-03 0.255D-03
 Coeff-Com:  0.407D-02-0.106D-01-0.138D+00 0.114D+01
 Coeff:      0.433D-05-0.806D-05 0.113D-04-0.474D-05-0.154D-03 0.255D-03
 Coeff:      0.407D-02-0.106D-01-0.138D+00 0.114D+01
 Gap=     0.355 Goal=   None    Shift=    0.000
 RMSDP=8.94D-09 MaxDP=5.07D-08 DE=-3.84D-13 OVMax= 0.00D+00

 SCF Done:  E(RHF) =  -13.3697242905     A.U. after   10 cycles
            NFock= 10  Conv=0.89D-08     -V/T= 1.4857
 KE= 2.752805822615D+01 PE=-2.053529016535D+02 EE= 7.813586808969D+01
 Leave Link  502 at Sun Dec  5 15:25:09 2021, MaxMem=   104857600 cpu:               0.1 elap:               0.1
 (Enter /usr/local/g16reva03/legacy_cpu/g16/l601.exe)
 Copying SCF densities to generalized density rwf, IOpCl= 0 IROHF=0.

 **********************************************************************

            Population analysis using the SCF density.

 **********************************************************************

 Alpha  occ. eigenvalues --   -1.06082  -1.04753  -1.02768  -1.00091  -0.96683
 Alpha  occ. eigenvalues --   -0.92498  -0.87477  -0.81557  -0.74664  -0.66721
 Alpha  occ. eigenvalues --   -0.57647  -0.47356  -0.35752  -0.22732  -0.08229
 Alpha  occ. eigenvalues --    0.07354
 Alpha virt. eigenvalues --    0.42826   0.60796   0.80326   1.00906   1.22636
 Alpha virt. eigenvalues --    1.45682   1.70188   1.96231   2.23769   2.52565
 Alpha virt. eigenvalues --    2.82100   3.11482   3.39389   3.64099   3.83655
 Alpha virt. eigenvalues --    3.96182
          Condensed to atoms (all electrons):
               1          2          3          4          5          6
     1  H    1.029288   0.426081  -0.243963  -0.097179   0.018983   0.008626
     2  H    0.426081   0.607369   0.052332  -0.094759  -0.029300   0.002902
     3  H   -0.243963   0.052332   1.046113   0.479282  -0.214070  -0.101013
     4  H   -0.097179  -0.094759   0.479282   0.736044   0.064752  -0.127739
     5  H    0.018983  -0.029300  -0.214070   0.064752   1.001211   0.464280
     6  H    0.008626   0.002902  -0.101013  -0.127739   0.464280   0.795060
     7  H   -0.000822   0.002369   0.015265  -0.031641  -0.201215   0.082412
     8  H   -0.000388   0.000071   0.008690   0.006209  -0.099526  -0.142724
     9  H    0.000020  -0.000089  -0.000630   0.002584   0.014018  -0.034367
    10  H    0.000009  -0.000006  -0.000387  -0.000114   0.008620   0.007744
    11  H   -0.000000   0.000002   0.000015  -0.000099  -0.000562   0.002799
    12  H   -0.000000   0.000000   0.000009  -0.000001  -0.000386  -0.000202
    13  H    0.000000  -0.000000  -0.000000   0.000002   0.000013  -0.000108
    14  H    0.000000  -0.000000  -0.000000   0.000000   0.000009   0.000002
    15  H   -0.000000   0.000000   0.000000  -0.000000  -0.000000   0.000002
    16  H   -0.000000   0.000000   0.000000  -0.000000  -0.000000   0.000000
    17  H    0.000000  -0.000000  -0.000000   0.000000   0.000000  -0.000000
    18  H    0.000000  -0.000000  -0.000000   0.000000   0.000000  -0.000000
    19  H    0.000000   0.000000   0.000000  -0.000000  -0.000000   0.000000
    20  H    0.000000   0.000000   0.000000  -0.000000  -0.000000   0.000000
    21  H    0.000000   0.000000   0.000000   0.000000   0.000000  -0.000000
    22  H    0.000000   0.000000   0.000000   0.000000   0.000000  -0.000000
    23  H    0.000000   0.000000   0.000000   0.000000   0.000000   0.000000
    24  H    0.000000   0.000000   0.000000   0.000000   0.000000   0.000000
    25  H    0.000000   0.000000   0.000000   0.000000   0.000000   0.000000
    26  H    0.000000   0.000000   0.000000   0.000000   0.000000   0.000000
    27  H    0.000000   0.000000   0.000000   0.000000   0.000000   0.000000
    28  H    0.000000   0.000000   0.000000   0.000000   0.000000   0.000000
    29  H    0.000000   0.000000   0.000000   0.000000   0.000000   0.000000
    30  H    0.000000   0.000000   0.000000   0.000000   0.000000   0.000000
    31  H    0.000000   0.000000   0.000000   0.000000   0.000000   0.000000
    32  H    0.000000   0.000000   0.000000   0.000000   0.000000   0.000000
               7          8          9         10         11         12
     1  H   -0.000822  -0.000388   0.000020   0.000009  -0.000000  -0.000000
     2  H    0.002369   0.000071  -0.000089  -0.000006   0.000002   0.000000
     3  H    0.015265   0.008690  -0.000630  -0.000387   0.000015   0.000009
     4  H   -0.031641   0.006209   0.002584  -0.000114  -0.000099  -0.000001
     5  H   -0.201215  -0.099526   0.014018   0.008620  -0.000562  -0.000386
     6  H    0.082412  -0.142724  -0.034367   0.007744   0.002799  -0.000202
     7  H    0.968214   0.451290  -0.192297  -0.097867   0.013085   0.008513
     8  H    0.451290   0.827785   0.093899  -0.151914  -0.036106   0.008759
     9  H   -0.192297   0.093899   0.946498   0.442596  -0.185954  -0.096745
    10  H   -0.097867  -0.151914   0.442596   0.849521   0.101371  -0.158441
    11  H    0.013085  -0.036106  -0.185954   0.101371   0.930137   0.436989
    12  H    0.008513   0.008759  -0.096745  -0.158441   0.436989   0.866004
    13  H   -0.000507   0.002936   0.012375  -0.037219  -0.180892   0.106034
    14  H   -0.000383  -0.000263   0.008440   0.009516  -0.096032  -0.163632
    15  H    0.000011  -0.000113  -0.000464   0.003021   0.011778  -0.037882
    16  H    0.000009   0.000004  -0.000380  -0.000311   0.008395   0.010141
    17  H   -0.000000   0.000002   0.000010  -0.000117  -0.000425   0.003068
    18  H   -0.000000  -0.000000   0.000009   0.000006  -0.000379  -0.000351
    19  H    0.000000  -0.000000  -0.000000   0.000002   0.000008  -0.000118
    20  H    0.000000  -0.000000  -0.000000  -0.000000   0.000009   0.000007
    21  H   -0.000000   0.000000   0.000000  -0.000000  -0.000000   0.000002
    22  H   -0.000000   0.000000   0.000000   0.000000  -0.000000  -0.000000
    23  H   -0.000000  -0.000000  -0.000000   0.000000   0.000000  -0.000000
    24  H    0.000000  -0.000000  -0.000000  -0.000000   0.000000   0.000000
    25  H    0.000000   0.000000  -0.000000  -0.000000   0.000000   0.000000
    26  H    0.000000   0.000000   0.000000  -0.000000  -0.000000  -0.000000
    27  H    0.000000   0.000000   0.000000   0.000000  -0.000000  -0.000000
    28  H    0.000000   0.000000   0.000000   0.000000   0.000000   0.000000
    29  H    0.000000   0.000000   0.000000   0.000000   0.000000   0.000000
    30  H    0.000000   0.000000   0.000000   0.000000   0.000000   0.000000
    31  H    0.000000   0.000000   0.000000   0.000000   0.000000   0.000000
    32  H    0.000000   0.000000   0.000000   0.000000   0.000000   0.000000
              13         14         15         16         17         18
     1  H    0.000000   0.000000  -0.000000  -0.000000   0.000000   0.000000
     2  H   -0.000000  -0.000000   0.000000   0.000000  -0.000000  -0.000000
     3  H   -0.000000  -0.000000   0.000000   0.000000  -0.000000  -0.000000
     4  H    0.000002   0.000000  -0.000000  -0.000000   0.000000   0.000000
     5  H    0.000013   0.000009  -0.000000  -0.000000   0.000000   0.000000
     6  H   -0.000108   0.000002   0.000002   0.000000  -0.000000  -0.000000
     7  H   -0.000507  -0.000383   0.000011   0.000009  -0.000000  -0.000000
     8  H    0.002936  -0.000263  -0.000113   0.000004   0.000002  -0.000000
     9  H    0.012375   0.008440  -0.000464  -0.000380   0.000010   0.000009
    10  H   -0.037219   0.009516   0.003021  -0.000311  -0.000117   0.000006
    11  H   -0.180892  -0.096032   0.011778   0.008395  -0.000425  -0.000379
    12  H    0.106034  -0.163632  -0.037882   0.010141   0.003068  -0.000351
    13  H    0.916495   0.433635  -0.176471  -0.095637   0.011233   0.008374
    14  H    0.433635   0.879766   0.108595  -0.168128  -0.038193   0.010700
    15  H   -0.176471   0.108595   0.904153   0.432063  -0.172312  -0.095511
    16  H   -0.095637  -0.168128   0.432063   0.892177   0.109412  -0.172312
    17  H    0.011233  -0.038193  -0.172312   0.109412   0.892177   0.432063
    18  H    0.008374   0.010700  -0.095511  -0.172312   0.432063   0.904153
    19  H   -0.000388   0.003083   0.010700  -0.038193  -0.168128   0.108595
    20  H   -0.000379  -0.000388   0.008374   0.011233  -0.095637  -0.176471
    21  H    0.000007  -0.000118  -0.000351   0.003068   0.010141  -0.037882
    22  H    0.000009   0.000008  -0.000379  -0.000425   0.008395   0.011778
    23  H   -0.000000   0.000002   0.000006  -0.000117  -0.000311   0.003021
    24  H   -0.000000  -0.000000   0.000009   0.000010  -0.000380  -0.000464
    25  H   -0.000000  -0.000000  -0.000000   0.000002   0.000004  -0.000113
    26  H    0.000000   0.000000  -0.000000  -0.000000   0.000009   0.000011
    27  H    0.000000   0.000000  -0.000000  -0.000000   0.000000   0.000002
    28  H   -0.000000  -0.000000   0.000000   0.000000  -0.000000  -0.000000
    29  H   -0.000000  -0.000000   0.000000   0.000000  -0.000000  -0.000000
    30  H    0.000000   0.000000  -0.000000  -0.000000   0.000000   0.000000
    31  H    0.000000   0.000000  -0.000000  -0.000000   0.000000   0.000000
    32  H    0.000000   0.000000   0.000000   0.000000  -0.000000  -0.000000
              19         20         21         22         23         24
     1  H    0.000000   0.000000   0.000000   0.000000   0.000000   0.000000
     2  H    0.000000   0.000000   0.000000   0.000000   0.000000   0.000000
     3  H    0.000000   0.000000   0.000000   0.000000   0.000000   0.000000
     4  H   -0.000000  -0.000000   0.000000   0.000000   0.000000   0.000000
     5  H   -0.000000  -0.000000   0.000000   0.000000   0.000000   0.000000
     6  H    0.000000   0.000000  -0.000000  -0.000000   0.000000   0.000000
     7  H    0.000000   0.000000  -0.000000  -0.000000  -0.000000   0.000000
     8  H   -0.000000  -0.000000   0.000000   0.000000  -0.000000  -0.000000
     9  H   -0.000000  -0.000000   0.000000   0.000000  -0.000000  -0.000000
    10  H    0.000002  -0.000000  -0.000000   0.000000   0.000000  -0.000000
    11  H    0.000008   0.000009  -0.000000  -0.000000   0.000000   0.000000
    12  H   -0.000118   0.000007   0.000002  -0.000000  -0.000000   0.000000
    13  H   -0.000388  -0.000379   0.000007   0.000009  -0.000000  -0.000000
    14  H    0.003083  -0.000388  -0.000118   0.000008   0.000002  -0.000000
    15  H    0.010700   0.008374  -0.000351  -0.000379   0.000006   0.000009
    16  H   -0.038193   0.011233   0.003068  -0.000425  -0.000117   0.000010
    17  H   -0.168128  -0.095637   0.010141   0.008395  -0.000311  -0.000380
    18  H    0.108595  -0.176471  -0.037882   0.011778   0.003021  -0.000464
    19  H    0.879766   0.433635  -0.163632  -0.096032   0.009516   0.008440
    20  H    0.433635   0.916495   0.106034  -0.180892  -0.037219   0.012375
    21  H   -0.163632   0.106034   0.866004   0.436989  -0.158441  -0.096745
    22  H   -0.096032  -0.180892   0.436989   0.930137   0.101371  -0.185954
    23  H    0.009516  -0.037219  -0.158441   0.101371   0.849521   0.442596
    24  H    0.008440   0.012375  -0.096745  -0.185954   0.442596   0.946498
    25  H   -0.000263   0.002936   0.008759  -0.036106  -0.151914   0.093899
    26  H   -0.000383  -0.000507   0.008513   0.013085  -0.097867  -0.192297
    27  H    0.000002  -0.000108  -0.000202   0.002799   0.007744  -0.034367
    28  H    0.000009   0.000013  -0.000386  -0.000562   0.008620   0.014018
    29  H    0.000000   0.000002  -0.000001  -0.000099  -0.000114   0.002584
    30  H   -0.000000  -0.000000   0.000009   0.000015  -0.000387  -0.000630
    31  H   -0.000000  -0.000000   0.000000   0.000002  -0.000006  -0.000089
    32  H    0.000000   0.000000  -0.000000  -0.000000   0.000009   0.000020
              25         26         27         28         29         30
     1  H    0.000000   0.000000   0.000000   0.000000   0.000000   0.000000
     2  H    0.000000   0.000000   0.000000   0.000000   0.000000   0.000000
     3  H    0.000000   0.000000   0.000000   0.000000   0.000000   0.000000
     4  H    0.000000   0.000000   0.000000   0.000000   0.000000   0.000000
     5  H    0.000000   0.000000   0.000000   0.000000   0.000000   0.000000
     6  H    0.000000   0.000000   0.000000   0.000000   0.000000   0.000000
     7  H    0.000000   0.000000   0.000000   0.000000   0.000000   0.000000
     8  H    0.000000   0.000000   0.000000   0.000000   0.000000   0.000000
     9  H   -0.000000   0.000000   0.000000   0.000000   0.000000   0.000000
    10  H   -0.000000  -0.000000   0.000000   0.000000   0.000000   0.000000
    11  H    0.000000  -0.000000  -0.000000   0.000000   0.000000   0.000000
    12  H    0.000000  -0.000000  -0.000000   0.000000   0.000000   0.000000
    13  H   -0.000000   0.000000   0.000000  -0.000000  -0.000000   0.000000
    14  H   -0.000000   0.000000   0.000000  -0.000000  -0.000000   0.000000
    15  H   -0.000000  -0.000000  -0.000000   0.000000   0.000000  -0.000000
    16  H    0.000002  -0.000000  -0.000000   0.000000   0.000000  -0.000000
    17  H    0.000004   0.000009   0.000000  -0.000000  -0.000000   0.000000
    18  H   -0.000113   0.000011   0.000002  -0.000000  -0.000000   0.000000
    19  H   -0.000263  -0.000383   0.000002   0.000009   0.000000  -0.000000
    20  H    0.002936  -0.000507  -0.000108   0.000013   0.000002  -0.000000
    21  H    0.008759   0.008513  -0.000202  -0.000386  -0.000001   0.000009
    22  H   -0.036106   0.013085   0.002799  -0.000562  -0.000099   0.000015
    23  H   -0.151914  -0.097867   0.007744   0.008620  -0.000114  -0.000387
    24  H    0.093899  -0.192297  -0.034367   0.014018   0.002584  -0.000630
    25  H    0.827785   0.451290  -0.142724  -0.099526   0.006209   0.008690
    26  H    0.451290   0.968214   0.082412  -0.201215  -0.031641   0.015265
    27  H   -0.142724   0.082412   0.795060   0.464280  -0.127739  -0.101013
    28  H   -0.099526  -0.201215   0.464280   1.001211   0.064752  -0.214070
    29  H    0.006209  -0.031641  -0.127739   0.064752   0.736044   0.479282
    30  H    0.008690   0.015265  -0.101013  -0.214070   0.479282   1.046113
    31  H    0.000071   0.002369   0.002902  -0.029300  -0.094759   0.052332
    32  H   -0.000388  -0.000822   0.008626   0.018983  -0.097179  -0.243963
              31         32
     1  H    0.000000   0.000000
     2  H    0.000000   0.000000
     3  H    0.000000   0.000000
     4  H    0.000000   0.000000
     5  H    0.000000   0.000000
     6  H    0.000000   0.000000
     7  H    0.000000   0.000000
     8  H    0.000000   0.000000
     9  H    0.000000   0.000000
    10  H    0.000000   0.000000
    11  H    0.000000   0.000000
    12  H    0.000000   0.000000
    13  H    0.000000   0.000000
    14  H    0.000000   0.000000
    15  H   -0.000000   0.000000
    16  H   -0.000000   0.000000
    17  H    0.000000  -0.000000
    18  H    0.000000  -0.000000
    19  H   -0.000000   0.000000
    20  H   -0.000000   0.000000
    21  H    0.000000  -0.000000
    22  H    0.000002  -0.000000
    23  H   -0.000006   0.000009
    24  H   -0.000089   0.000020
    25  H    0.000071  -0.000388
    26  H    0.002369  -0.000822
    27  H    0.002902   0.008626
    28  H   -0.029300   0.018983
    29  H   -0.094759  -0.097179
    30  H    0.052332  -0.243963
    31  H    0.607369   0.426081
    32  H    0.426081   1.029288
 Mulliken charges:
               1
     1  H   -0.140655
     2  H    0.033028
     3  H   -0.041643
     4  H    0.062658
     5  H   -0.026829
     6  H    0.042324
     7  H   -0.016438
     8  H    0.031390
     9  H   -0.009523
    10  H    0.023969
    11  H   -0.004140
    12  H    0.018230
    13  H    0.000488
    14  H    0.013380
    15  H    0.004772
    16  H    0.008989
    17  H    0.008989
    18  H    0.004772
    19  H    0.013380
    20  H    0.000488
    21  H    0.018230
    22  H   -0.004140
    23  H    0.023969
    24  H   -0.009523
    25  H    0.031390
    26  H   -0.016438
    27  H    0.042324
    28  H   -0.026829
    29  H    0.062658
    30  H   -0.041643
    31  H    0.033028
    32  H   -0.140655
 Sum of Mulliken charges =  -0.00000
 Mulliken charges with hydrogens summed into heavy atoms:
               1
 Electronic spatial extent (au):  <R**2>=          13514.9461
 Charge=             -0.0000 electrons
 Dipole moment (field-independent basis, Debye):
    X=              0.0000    Y=              0.0000    Z=             -0.0000  Tot=              0.0000
 Quadrupole moment (field-independent basis, Debye-Ang):
   XX=            -25.5401   YY=            -25.5401   ZZ=           -116.1211
   XY=              0.0000   XZ=              0.0000   YZ=              0.0000
 Traceless Quadrupole moment (field-independent basis, Debye-Ang):
   XX=             30.1937   YY=             30.1937   ZZ=            -60.3874
   XY=              0.0000   XZ=              0.0000   YZ=              0.0000
 Octapole moment (field-independent basis, Debye-Ang**2):
  XXX=              0.0000  YYY=              0.0000  ZZZ=          -3239.7797  XYY=              0.0000
  XXY=              0.0000  XXZ=           -237.5225  XZZ=              0.0000  YZZ=              0.0000
  YYZ=           -237.5225  XYZ=              0.0000
 Hexadecapole moment (field-independent basis, Debye-Ang**3):
 XXXX=            -19.0956 YYYY=            -19.0956 ZZZZ=         -75519.9479 XXXY=              0.0000
 XXXZ=              0.0000 YYYX=              0.0000 YYYZ=              0.0000 ZZZX=              0.0000
 ZZZY=              0.0000 XXYY=             -6.3652 XXZZ=          -3027.4355 YYZZ=          -3027.4355
 XXYZ=              0.0000 YYXZ=              0.0000 ZZXY=              0.0000
 N-N= 8.631925104711D+01 E-N=-2.053529015428D+02  KE= 2.752805822615D+01
 No NMR shielding tensors so no spin-rotation constants.
 Leave Link  601 at Sun Dec  5 15:25:09 2021, MaxMem=   104857600 cpu:               0.1 elap:               0.1
 (Enter /usr/local/g16reva03/legacy_cpu/g16/l9999.exe)
 1\1\GINC-USER1\SP\RHF\STO-3G\H32\MRAMIN02\05-Dec-2021\0\\#p rhf nosymm
  output=matrix int=noraf scf=conven\\h2-sto3g\\0,1\H\H,1,0.6\H,2,0.6,1
 ,180.\H,3,0.6,2,180.,1,0.,0\H,4,0.6,3,180.,1,0.,0\H,5,0.6,4,180.,1,0.,
 0\H,6,0.6,5,180.,1,0.,0\H,7,0.6,6,180.,1,0.,0\H,8,0.6,7,180.,1,0.,0\H,
 9,0.6,8,180.,1,0.,0\H,10,0.6,9,180.,1,0.,0\H,11,0.6,10,180.,1,0.,0\H,1
 2,0.6,11,180.,1,0.,0\H,13,0.6,12,180.,1,0.,0\H,14,0.6,13,180.,1,0.,0\H
 ,15,0.6,14,180.,1,0.,0\H,16,0.6,15,180.,1,0.,0\H,17,0.6,16,180.,1,0.,0
 \H,18,0.6,17,180.,1,0.,0\H,19,0.6,18,180.,1,0.,0\H,20,0.6,19,180.,1,0.
 ,0\H,21,0.6,20,180.,1,0.,0\H,22,0.6,21,180.,1,0.,0\H,23,0.6,22,180.,1,
 0.,0\H,24,0.6,23,180.,1,0.,0\H,25,0.6,24,180.,1,0.,0\H,26,0.6,25,180.,
 1,0.,0\H,27,0.6,26,180.,1,0.,0\H,28,0.6,27,180.,1,0.,0\H,29,0.6,28,180
 .,1,0.,0\H,30,0.6,29,180.,1,0.,0\H,31,0.6,30,180.,1,0.,0\\Version=EM64
 L-G16RevA.03\HF=-13.3697243\RMSD=8.936e-09\Dipole=0.,0.,0.\Quadrupole=
 22.4482708,22.4482708,-44.8965415,0.,0.,0.\PG=D*H [C*(H1H1H1H1H1H1H1H1
 H1H1H1H1H1H1H1H1.H1H1H1H1H1H1H1H1H1H1H1H1H1H1H1H1)]\\@


 IF YOU GET CONFUSED, LOGIC OUT YOUR DILEMMA

           --  PICKER X-RAY CORP.    DIGITAL PRINTER MANUAL CA. 1964

 Writing WrtUnf unformatted file "h2-32.mat"
 Gaussian matrix elements                                         Version   2 NLab=11 Len12L=8 Len4L=8
 Write SHELL TO ATOM MAP                   from file     0 offset           0 length                  32 to matrix element file.
 Write SHELL TYPES                         from file     0 offset           0 length                  32 to matrix element file.
 Write NUMBER OF PRIMITIVES PER SHELL      from file     0 offset           0 length                  32 to matrix element file.
 Write PRIMITIVE EXPONENTS                 from file     0 offset           0 length                  96 to matrix element file.
 Write CONTRACTION COEFFICIENTS            from file     0 offset           0 length                  96 to matrix element file.
 Write P(S=P) CONTRACTION COEFFICIENTS     from file     0 offset           0 length                  96 to matrix element file.
 Write COORDINATES OF EACH SHELL           from file     0 offset           0 length                  96 to matrix element file.
 Write BONDS PER ATOM                      from file     0 offset           0 length                  32 to matrix element file.
 Write BONDED ATOMS                        from file     0 offset           0 length                  62 to matrix element file.
 Write BOND TYPES                          from file     0 offset           0 length                  62 to matrix element file.
 Write GAUSSIAN SCALARS                    from file   501 offset           0 to matrix element file.
 Write INTEGER ISO                         from file     0 offset           0 length                  32 to matrix element file.
 Write INTEGER SPIN                        from file     0 offset           0 length                  32 to matrix element file.
 Write REAL ZEFFECTIVE                     from file     0 offset           0 length                  32 to matrix element file.
 Write REAL GFACTOR                        from file     0 offset           0 length                  32 to matrix element file.
 Write REAL ZNUCLEAR                       from file     0 offset           0 length                  32 to matrix element file.
 Write NUCLEAR GRADIENT                    from file 10584 offset           0 length                  96 to matrix element file.
 Array NUCLEAR FORCE CONSTANTS              on  file 10585 does not exist.
 Write ELECTRIC DIPOLE MOMENT              from file     0 offset           0 length                   3 to matrix element file.
 Write OVERLAP                             from file   514 offset           0 length                 528 to matrix element file.
 Write CORE HAMILTONIAN ALPHA              from file   515 offset           0 length                 528 to matrix element file.
 Write CORE HAMILTONIAN BETA               from file   515 offset         528 length                 528 to matrix element file.
 Write KINETIC ENERGY                      from file   516 offset           0 length                 528 to matrix element file.
 Write ORTHOGONAL BASIS                    from file   685 offset           0 length                1024 to matrix element file.
 Write DIPOLE INTEGRALS                    from file   518 offset           0 length                1584 to matrix element file.
 Write DIP VEL INTEGRALS                   from file   572 offset           0 length                1584 to matrix element file.
 Write R X DEL INTEGRALS                   from file   572 offset        1584 length                1584 to matrix element file.
 Write ALPHA ORBITAL ENERGIES              from file     0 offset           0 length                  32 to matrix element file.
 Write ALPHA MO COEFFICIENTS               from file 10524 offset           0 length                1024 to matrix element file.
 Write ALPHA DENSITY MATRIX                from file 10528 offset           0 length                 528 to matrix element file.
 Write ALPHA SCF DENSITY MATRIX            from file 10528 offset           0 length                 528 to matrix element file.
 Write ALPHA FOCK MATRIX                   from file 10536 offset           0 length                 528 to matrix element file.
 Write REGULAR 2E INTEGRALS                to matrix element file, NR=1 ITotal=       52053.
 Job cpu time:       0 days  0 hours  0 minutes  6.9 seconds.
 Elapsed time:       0 days  0 hours  0 minutes  7.5 seconds.
 File lengths (MBytes):  RWF=     72 Int=      4 D2E=      0 Chk=      8 Scr=      8
 Normal termination of Gaussian 16 at Sun Dec  5 15:25:10 2021.
