************************************************************
This is node095 of the Cardinal research cluster.
Date: Wed Nov 24 13:33:06 EST 2021
************************************************************
 Set GAUSS_MDEF to "12GB".
 Set GAUSS_PDEF to "8".
 Entering Gaussian System, Link 0=g16
 Initial command:
 /usr/local/g16reva03/legacy_cpu/g16/l1.exe "/tmp/tmp.b3iKkCJ35S/Gau-4495.inp" -scrdir="/tmp/tmp.b3iKkCJ35S/"
 Default is to use a total of   8 processors:
                                8 via shared-memory
                                1 via Linda
 Entering Link 1 = /usr/local/g16reva03/legacy_cpu/g16/l1.exe PID=      4496.
  
 Copyright (c) 1988,1990,1992,1993,1995,1998,2003,2009,2016,
            Gaussian, Inc.  All Rights Reserved.
  
 This is part of the Gaussian(R) 16 program.  It is based on
 the Gaussian(R) 09 system (copyright 2009, Gaussian, Inc.),
 the Gaussian(R) 03 system (copyright 2003, Gaussian, Inc.),
 the Gaussian(R) 98 system (copyright 1998, Gaussian, Inc.),
 the Gaussian(R) 94 system (copyright 1995, Gaussian, Inc.),
 the Gaussian 92(TM) system (copyright 1992, Gaussian, Inc.),
 the Gaussian 90(TM) system (copyright 1990, Gaussian, Inc.),
 the Gaussian 88(TM) system (copyright 1988, Gaussian, Inc.),
 the Gaussian 86(TM) system (copyright 1986, Carnegie Mellon
 University), and the Gaussian 82(TM) system (copyright 1983,
 Carnegie Mellon University). Gaussian is a federally registered
 trademark of Gaussian, Inc.
  
 This software contains proprietary and confidential information,
 including trade secrets, belonging to Gaussian, Inc.
  
 This software is provided under written license and may be
 used, copied, transmitted, or stored only in accord with that
 written license.
  
 The following legend is applicable only to US Government
 contracts under FAR:
  
                    RESTRICTED RIGHTS LEGEND
  
 Use, reproduction and disclosure by the US Government is
 subject to restrictions as set forth in subparagraphs (a)
 and (c) of the Commercial Computer Software - Restricted
 Rights clause in FAR 52.227-19.
  
 Gaussian, Inc.
 340 Quinnipiac St., Bldg. 40, Wallingford CT 06492
  
  
 ---------------------------------------------------------------
 Warning -- This program may not be used in any manner that
 competes with the business of Gaussian, Inc. or will provide
 assistance to any competitor of Gaussian, Inc.  The licensee
 of this program is prohibited from giving any competitor of
 Gaussian, Inc. access to this program.  By using this program,
 the user acknowledges that Gaussian, Inc. is engaged in the
 business of creating and licensing software in the field of
 computational chemistry and represents and warrants to the
 licensee that it is not a competitor of Gaussian, Inc. and that
 it will not use this program in any manner prohibited above.
 ---------------------------------------------------------------
  

 Cite this work as:
 Gaussian 16, Revision A.03,
 M. J. Frisch, G. W. Trucks, H. B. Schlegel, G. E. Scuseria, 
 M. A. Robb, J. R. Cheeseman, G. Scalmani, V. Barone, 
 G. A. Petersson, H. Nakatsuji, X. Li, M. Caricato, A. V. Marenich, 
 J. Bloino, B. G. Janesko, R. Gomperts, B. Mennucci, H. P. Hratchian, 
 J. V. Ortiz, A. F. Izmaylov, J. L. Sonnenberg, D. Williams-Young, 
 F. Ding, F. Lipparini, F. Egidi, J. Goings, B. Peng, A. Petrone, 
 T. Henderson, D. Ranasinghe, V. G. Zakrzewski, J. Gao, N. Rega, 
 G. Zheng, W. Liang, M. Hada, M. Ehara, K. Toyota, R. Fukuda, 
 J. Hasegawa, M. Ishida, T. Nakajima, Y. Honda, O. Kitao, H. Nakai, 
 T. Vreven, K. Throssell, J. A. Montgomery, Jr., J. E. Peralta, 
 F. Ogliaro, M. J. Bearpark, J. J. Heyd, E. N. Brothers, K. N. Kudin, 
 V. N. Staroverov, T. A. Keith, R. Kobayashi, J. Normand, 
 K. Raghavachari, A. P. Rendell, J. C. Burant, S. S. Iyengar, 
 J. Tomasi, M. Cossi, J. M. Millam, M. Klene, C. Adamo, R. Cammi, 
 J. W. Ochterski, R. L. Martin, K. Morokuma, O. Farkas, 
 J. B. Foresman, and D. J. Fox, Gaussian, Inc., Wallingford CT, 2016.
 
 ******************************************
 Gaussian 16:  EM64L-G16RevA.03 25-Dec-2016
                24-Nov-2021 
 ******************************************
 %chk=two_p_orbitals_1.chk
 --------------------
 #P gen output=matrix
 --------------------
 1/38=1,172=1/1;
 2/12=2,17=6,18=5,40=1/2;
 3/5=7,11=9,25=1,30=1/1,2,3,8;
 4//1;
 5/5=2,38=5/2;
 6/7=2,8=2,9=2,10=2,28=1/1;
 99/5=1,6=100000,9=1/99;
 Leave Link    1 at Wed Nov 24 13:33:06 2021, MaxMem=           0 cpu:               1.2 elap:               0.2
 (Enter /usr/local/g16reva03/legacy_cpu/g16/l101.exe)
 ----
 test
 ----
 Symbolic Z-matrix:
 Charge =  0 Multiplicity = 1
 C
 C                    1    R1
 C                    2    R2       1     180. 
 C                    3    R3       2     180.     1     0.       0
       Variables:
  R1                    1.                       
  R2                    1.1                      
  R3                    1.2                      
 
 ITRead=  0  0  0  0
 MicOpt= -1 -1 -1 -1
 NAtoms=      4 NQM=        4 NQMF=       0 NMMI=      0 NMMIF=      0
                NMic=       0 NMicF=      0.
                    Isotopes and Nuclear Properties:
 (Nuclear quadrupole moments (NQMom) in fm**2, nuclear magnetic moments (NMagM)
  in nuclear magnetons)

  Atom         1           2           3           4
 IAtWgt=          12          12          12          12
 AtmWgt=  12.0000000  12.0000000  12.0000000  12.0000000
 NucSpn=           0           0           0           0
 AtZEff=  -0.0000000  -0.0000000  -0.0000000  -0.0000000
 NQMom=    0.0000000   0.0000000   0.0000000   0.0000000
 NMagM=    0.0000000   0.0000000   0.0000000   0.0000000
 AtZNuc=   6.0000000   6.0000000   6.0000000   6.0000000
 Leave Link  101 at Wed Nov 24 13:33:06 2021, MaxMem=  1610612736 cpu:               1.3 elap:               0.2
 (Enter /usr/local/g16reva03/legacy_cpu/g16/l202.exe)
                          Input orientation:                          
 ---------------------------------------------------------------------
 Center     Atomic      Atomic             Coordinates (Angstroms)
 Number     Number       Type             X           Y           Z
 ---------------------------------------------------------------------
      1          6           0        0.000000    0.000000    0.000000
      2          6           0        0.000000    0.000000    1.000000
      3          6           0        0.000000    0.000000    2.100000
      4          6           0        0.000000    0.000000    3.300000
 ---------------------------------------------------------------------
                    Distance matrix (angstroms):
                    1          2          3          4
     1  C    0.000000
     2  C    1.000000   0.000000
     3  C    2.100000   1.100000   0.000000
     4  C    3.300000   2.300000   1.200000   0.000000
 Stoichiometry    C4
 Framework group  C*V[C*(CCCC)]
 Deg. of freedom     3
 Full point group                 C*V     NOp   4
 Largest Abelian subgroup         C2V     NOp   4
 Largest concise Abelian subgroup C1      NOp   1
                         Standard orientation:                         
 ---------------------------------------------------------------------
 Center     Atomic      Atomic             Coordinates (Angstroms)
 Number     Number       Type             X           Y           Z
 ---------------------------------------------------------------------
      1          6           0        0.000000    0.000000   -1.600000
      2          6           0        0.000000    0.000000   -0.600000
      3          6           0        0.000000    0.000000    0.500000
      4          6           0        0.000000    0.000000    1.700000
 ---------------------------------------------------------------------
 Rotational constants (GHZ):           0.0000000           6.9496563           6.9496563
 Leave Link  202 at Wed Nov 24 13:33:06 2021, MaxMem=  1610612736 cpu:               0.1 elap:               0.1
 (Enter /usr/local/g16reva03/legacy_cpu/g16/l301.exe)
 General basis read from cards:  (5D, 7F)
 Centers:       1      2      3      4
 SP 1 1.00
     Exponent=  1.4786005330D-01 Coefficients=  3.9951282610D-01  6.0768371860D-01
 ****
 Ernie: Thresh=  0.10000D-02 Tol=  0.10000D-05 Strict=F.
 There are     8 symmetry adapted cartesian basis functions of A1  symmetry.
 There are     0 symmetry adapted cartesian basis functions of A2  symmetry.
 There are     4 symmetry adapted cartesian basis functions of B1  symmetry.
 There are     4 symmetry adapted cartesian basis functions of B2  symmetry.
 There are     8 symmetry adapted basis functions of A1  symmetry.
 There are     0 symmetry adapted basis functions of A2  symmetry.
 There are     4 symmetry adapted basis functions of B1  symmetry.
 There are     4 symmetry adapted basis functions of B2  symmetry.
    16 basis functions,    16 primitive gaussians,    16 cartesian basis functions
    12 alpha electrons       12 beta electrons
       nuclear repulsion energy        75.3714481907 Hartrees.
 IExCor=    0 DFT=F Ex=HF Corr=None ExCW=0 ScaHFX=  1.000000
 ScaDFX=  1.000000  1.000000  1.000000  1.000000 ScalE2=  1.000000  1.000000
 IRadAn=      5 IRanWt=     -1 IRanGd=            0 ICorTp=0 IEmpDi=  4
 NAtoms=    4 NActive=    4 NUniq=    4 SFac= 1.00D+00 NAtFMM=   60 NAOKFM=F Big=F
 Integral buffers will be    131072 words long.
 Raffenetti 1 integral format.
 Two-electron integral symmetry is turned on.
 Leave Link  301 at Wed Nov 24 13:33:06 2021, MaxMem=  1610612736 cpu:               0.8 elap:               0.1
 (Enter /usr/local/g16reva03/legacy_cpu/g16/l302.exe)
 NPDir=0 NMtPBC=     1 NCelOv=     1 NCel=       1 NClECP=     1 NCelD=      1
         NCelK=      1 NCelE2=     1 NClLst=     1 CellRange=     0.0.
 One-electron integrals computed using PRISM.
 One-electron integral symmetry used in STVInt
 NBasis=    16 RedAO= T EigKep=  3.41D-05  NBF=     8     0     4     4
 NBsUse=    16 1.00D-06 EigRej= -1.00D+00 NBFU=     8     0     4     4
 Leave Link  302 at Wed Nov 24 13:33:07 2021, MaxMem=  1610612736 cpu:               1.2 elap:               0.2
 (Enter /usr/local/g16reva03/legacy_cpu/g16/l303.exe)
 DipDrv:  MaxL=1.
 Leave Link  303 at Wed Nov 24 13:33:07 2021, MaxMem=  1610612736 cpu:               0.3 elap:               0.1
 (Enter /usr/local/g16reva03/legacy_cpu/g16/l308.exe)
 Leave Link  308 at Wed Nov 24 13:33:07 2021, MaxMem=  1610612736 cpu:               0.3 elap:               0.1
 (Enter /usr/local/g16reva03/legacy_cpu/g16/l401.exe)
 ExpMin= 1.48D-01 ExpMax= 1.48D-01 ExpMxC= 1.48D-01 IAcc=3 IRadAn=         5 AccDes= 0.00D+00
 Harris functional with IExCor=  205 and IRadAn=       5 diagonalized for initial guess.
 HarFok:  IExCor=  205 AccDes= 0.00D+00 IRadAn=         5 IDoV= 1 UseB2=F ITyADJ=14
 ICtDFT=  3500011 ScaDFX=  1.000000  1.000000  1.000000  1.000000
 FoFCou: FMM=F IPFlag=           0 FMFlag=      100000 FMFlg1=           0
         NFxFlg=           0 DoJE=T BraDBF=F KetDBF=T FulRan=T
         wScrn=  0.000000 ICntrl=       500 IOpCl=  0 I1Cent=   200000004 NGrid=           0
         NMat0=    1 NMatS0=      1 NMatT0=    0 NMatD0=    1 NMtDS0=    0 NMtDT0=    0
 Petite list used in FoFCou.
 Harris En= -68.0505279953493    
 JPrj=0 DoOrth=F DoCkMO=F.
 Initial guess orbital symmetries:
       Occupied  (SG) (SG) (SG) (SG) (PI) (PI) (PI) (PI) (SG) (PI)
                 (PI) (SG)
       Virtual   (PI) (PI) (SG) (SG)
 The electronic state of the initial guess is 1-SG.
 Leave Link  401 at Wed Nov 24 13:33:07 2021, MaxMem=  1610612736 cpu:               1.6 elap:               0.2
 (Enter /usr/local/g16reva03/legacy_cpu/g16/l502.exe)
 Keep R1 ints in memory in symmetry-blocked form, NReq=1611353.
 FoFCou: FMM=F IPFlag=           0 FMFlag=           0 FMFlg1=           0
         NFxFlg=           0 DoJE=F BraDBF=F KetDBF=F FulRan=T
         wScrn=  0.000000 ICntrl=       600 IOpCl=  0 I1Cent=           0 NGrid=           0
         NMat0=    1 NMatS0=    136 NMatT0=    0 NMatD0=    1 NMtDS0=    0 NMtDT0=    0
 Petite list used in FoFCou.
 Closed shell SCF:
 Using DIIS extrapolation, IDIIS=  1040.
 NGot=  1610612736 LenX=  1610607530 LenY=  1610606648
 Requested convergence on RMS density matrix=1.00D-08 within 128 cycles.
 Requested convergence on MAX density matrix=1.00D-06.
 Requested convergence on             energy=1.00D-06.
 No special actions if energy rises.

 Cycle   1  Pass 1  IDiag  1:
 E= -31.1481956030121    
 DIIS: error= 3.13D-01 at cycle   1 NSaved=   1.
 NSaved= 1 IEnMin= 1 EnMin= -31.1481956030121     IErMin= 1 ErrMin= 3.13D-01
 ErrMax= 3.13D-01  0.00D+00 EMaxC= 1.00D-01 BMatC= 9.22D-01 BMatP= 9.22D-01
 IDIUse=3 WtCom= 0.00D+00 WtEn= 1.00D+00
 Coeff-Com:  0.100D+01
 Coeff-En:   0.100D+01
 Coeff:      0.100D+01
 Gap=     0.082 Goal=   None    Shift=    0.000
 GapD=    0.082 DampG=0.500 DampE=0.250 DampFc=0.2500 IDamp=-1.
 Damping current iteration by 2.50D-01
 RMSDP=6.73D+02 MaxDP=2.90D+03              OVMax= 0.00D+00

 Cycle   2  Pass 1  IDiag  1:
 E= -31.5931214269322     Delta-E=       -0.444925823920 Rises=F Damp=T
 DIIS: error= 2.35D-01 at cycle   2 NSaved=   2.
 NSaved= 2 IEnMin= 2 EnMin= -31.5931214269322     IErMin= 2 ErrMin= 2.35D-01
 ErrMax= 2.35D-01  0.00D+00 EMaxC= 1.00D-01 BMatC= 5.12D-01 BMatP= 9.22D-01
 IDIUse=3 WtCom= 0.00D+00 WtEn= 1.00D+00
 Coeff-Com: -0.287D+01 0.387D+01
 Coeff-En:   0.000D+00 0.100D+01
 Coeff:      0.000D+00 0.100D+01
 Gap=     0.400 Goal=   None    Shift=    0.000
 RMSDP=5.43D+02 MaxDP=2.33D+03 DE=-4.45D-01 OVMax= 0.00D+00

 Cycle   3  Pass 1  IDiag  1:
 E= -32.9954862725527     Delta-E=       -1.402364845620 Rises=F Damp=F
 DIIS: error= 2.67D-02 at cycle   3 NSaved=   3.
 NSaved= 3 IEnMin= 3 EnMin= -32.9954862725527     IErMin= 3 ErrMin= 2.67D-02
 ErrMax= 2.67D-02  0.00D+00 EMaxC= 1.00D-01 BMatC= 6.79D-03 BMatP= 5.12D-01
 IDIUse=3 WtCom= 7.33D-01 WtEn= 2.67D-01
 Coeff-Com:  0.138D+01-0.194D+01 0.156D+01
 Coeff-En:   0.000D+00 0.000D+00 0.100D+01
 Coeff:      0.101D+01-0.142D+01 0.141D+01
 Gap=     0.429 Goal=   None    Shift=    0.000
 RMSDP=1.37D+02 MaxDP=5.71D+02 DE=-1.40D+00 OVMax= 0.00D+00

 Cycle   4  Pass 1  IDiag  1:
 E= -33.0139407920752     Delta-E=       -0.018454519522 Rises=F Damp=F
 DIIS: error= 4.88D-03 at cycle   4 NSaved=   4.
 NSaved= 4 IEnMin= 4 EnMin= -33.0139407920752     IErMin= 4 ErrMin= 4.88D-03
 ErrMax= 4.88D-03  0.00D+00 EMaxC= 1.00D-01 BMatC= 4.04D-04 BMatP= 6.79D-03
 IDIUse=3 WtCom= 9.51D-01 WtEn= 4.88D-02
 Coeff-Com:  0.206D+00-0.287D+00 0.967D-02 0.107D+01
 Coeff-En:   0.000D+00 0.000D+00 0.000D+00 0.100D+01
 Coeff:      0.196D+00-0.273D+00 0.920D-02 0.107D+01
 Gap=     0.428 Goal=   None    Shift=    0.000
 RMSDP=2.71D+01 MaxDP=1.11D+02 DE=-1.85D-02 OVMax= 0.00D+00

 Cycle   5  Pass 1  IDiag  1:
 E= -33.0145942036716     Delta-E=       -0.000653411596 Rises=F Damp=F
 DIIS: error= 3.39D-03 at cycle   5 NSaved=   5.
 NSaved= 5 IEnMin= 5 EnMin= -33.0145942036716     IErMin= 5 ErrMin= 3.39D-03
 ErrMax= 3.39D-03  0.00D+00 EMaxC= 1.00D-01 BMatC= 1.74D-04 BMatP= 4.04D-04
 IDIUse=3 WtCom= 9.66D-01 WtEn= 3.39D-02
 Coeff-Com:  0.380D-01-0.501D-01-0.966D-01 0.473D+00 0.636D+00
 Coeff-En:   0.000D+00 0.000D+00 0.000D+00 0.000D+00 0.100D+01
 Coeff:      0.367D-01-0.484D-01-0.933D-01 0.457D+00 0.648D+00
 Gap=     0.429 Goal=   None    Shift=    0.000
 RMSDP=4.25D+00 MaxDP=1.90D+01 DE=-6.53D-04 OVMax= 0.00D+00

 Cycle   6  Pass 1  IDiag  1:
 E= -33.0149725623442     Delta-E=       -0.000378358673 Rises=F Damp=F
 DIIS: error= 1.22D-04 at cycle   6 NSaved=   6.
 NSaved= 6 IEnMin= 6 EnMin= -33.0149725623442     IErMin= 6 ErrMin= 1.22D-04
 ErrMax= 1.22D-04  0.00D+00 EMaxC= 1.00D-01 BMatC= 3.19D-07 BMatP= 1.74D-04
 IDIUse=3 WtCom= 9.99D-01 WtEn= 1.22D-03
 Coeff-Com:  0.282D-02-0.400D-02 0.178D-01-0.779D-01-0.606D-01 0.112D+01
 Coeff-En:   0.000D+00 0.000D+00 0.000D+00 0.000D+00 0.000D+00 0.100D+01
 Coeff:      0.281D-02-0.399D-02 0.178D-01-0.778D-01-0.605D-01 0.112D+01
 Gap=     0.429 Goal=   None    Shift=    0.000
 RMSDP=1.02D-01 MaxDP=3.95D-01 DE=-3.78D-04 OVMax= 0.00D+00

 Cycle   7  Pass 1  IDiag  1:
 E= -33.0149732390374     Delta-E=       -0.000000676693 Rises=F Damp=F
 DIIS: error= 1.02D-05 at cycle   7 NSaved=   7.
 NSaved= 7 IEnMin= 7 EnMin= -33.0149732390374     IErMin= 7 ErrMin= 1.02D-05
 ErrMax= 1.02D-05  0.00D+00 EMaxC= 1.00D-01 BMatC= 1.65D-09 BMatP= 3.19D-07
 IDIUse=1 WtCom= 1.00D+00 WtEn= 0.00D+00
 Coeff-Com: -0.790D-03 0.110D-02-0.302D-02 0.138D-01 0.819D-02-0.226D+00
 Coeff-Com:  0.121D+01
 Coeff:     -0.790D-03 0.110D-02-0.302D-02 0.138D-01 0.819D-02-0.226D+00
 Coeff:      0.121D+01
 Gap=     0.429 Goal=   None    Shift=    0.000
 RMSDP=3.40D-02 MaxDP=1.36D-01 DE=-6.77D-07 OVMax= 0.00D+00

 Cycle   8  Pass 1  IDiag  1:
 E= -33.0149732674718     Delta-E=       -0.000000028434 Rises=F Damp=F
 DIIS: error= 2.08D-06 at cycle   8 NSaved=   8.
 NSaved= 8 IEnMin= 8 EnMin= -33.0149732674718     IErMin= 8 ErrMin= 2.08D-06
 ErrMax= 2.08D-06  0.00D+00 EMaxC= 1.00D-01 BMatC= 6.42D-11 BMatP= 1.65D-09
 IDIUse=1 WtCom= 1.00D+00 WtEn= 0.00D+00
 Coeff-Com:  0.839D-04-0.117D-03 0.505D-03-0.277D-02-0.145D-02 0.447D-01
 Coeff-Com: -0.402D+00 0.136D+01
 Coeff:      0.839D-04-0.117D-03 0.505D-03-0.277D-02-0.145D-02 0.447D-01
 Coeff:     -0.402D+00 0.136D+01
 Gap=     0.429 Goal=   None    Shift=    0.000
 RMSDP=9.22D-03 MaxDP=4.75D-02 DE=-2.84D-08 OVMax= 0.00D+00

 Cycle   9  Pass 1  IDiag  1:
 E= -33.0149732570527     Delta-E=        0.000000010419 Rises=F Damp=F
 DIIS: error= 1.10D-07 at cycle   9 NSaved=   9.
 NSaved= 9 IEnMin= 8 EnMin= -33.0149732674718     IErMin= 9 ErrMin= 1.10D-07
 ErrMax= 1.10D-07  0.00D+00 EMaxC= 1.00D-01 BMatC= 1.74D-13 BMatP= 6.42D-11
 IDIUse=1 WtCom= 1.00D+00 WtEn= 0.00D+00
 Coeff-Com: -0.678D-06 0.103D-05-0.181D-04 0.138D-03 0.632D-04-0.184D-02
 Coeff-Com:  0.213D-01-0.886D-01 0.107D+01
 Coeff:     -0.678D-06 0.103D-05-0.181D-04 0.138D-03 0.632D-04-0.184D-02
 Coeff:      0.213D-01-0.886D-01 0.107D+01
 Gap=     0.429 Goal=   None    Shift=    0.000
 RMSDP=7.23D-04 MaxDP=2.91D-03 DE= 1.04D-08 OVMax= 0.00D+00

 Cycle  10  Pass 1  IDiag  1:
 E= -33.0149732568198     Delta-E=        0.000000000233 Rises=F Damp=F
 DIIS: error= 3.52D-09 at cycle  10 NSaved=  10.
 NSaved=10 IEnMin= 8 EnMin= -33.0149732674718     IErMin=10 ErrMin= 3.52D-09
 ErrMax= 3.52D-09  0.00D+00 EMaxC= 1.00D-01 BMatC= 1.95D-16 BMatP= 1.74D-13
 IDIUse=1 WtCom= 1.00D+00 WtEn= 0.00D+00
 Coeff-Com: -0.769D-07 0.109D-06-0.921D-06 0.261D-05 0.213D-05-0.803D-04
 Coeff-Com:  0.232D-03 0.125D-02-0.734D-01 0.107D+01
 Coeff:     -0.769D-07 0.109D-06-0.921D-06 0.261D-05 0.213D-05-0.803D-04
 Coeff:      0.232D-03 0.125D-02-0.734D-01 0.107D+01
 Gap=     0.429 Goal=   None    Shift=    0.000
 RMSDP=7.14D-06 MaxDP=3.21D-05 DE= 2.33D-10 OVMax= 0.00D+00

 Cycle  11  Pass 1  IDiag  1:
 E= -33.0149732592500     Delta-E=       -0.000000002430 Rises=F Damp=F
 DIIS: error= 1.69D-09 at cycle  11 NSaved=  11.
 NSaved=11 IEnMin= 8 EnMin= -33.0149732674718     IErMin=11 ErrMin= 1.69D-09
 ErrMax= 1.69D-09  0.00D+00 EMaxC= 1.00D-01 BMatC= 4.73D-17 BMatP= 1.95D-16
 IDIUse=1 WtCom= 1.00D+00 WtEn= 0.00D+00
 Coeff-Com:  0.325D-07-0.460D-07 0.919D-07-0.139D-05-0.596D-06 0.708D-05
 Coeff-Com: -0.178D-03 0.888D-03-0.263D-01 0.394D+00 0.631D+00
 Coeff:      0.325D-07-0.460D-07 0.919D-07-0.139D-05-0.596D-06 0.708D-05
 Coeff:     -0.178D-03 0.888D-03-0.263D-01 0.394D+00 0.631D+00
 Gap=     0.429 Goal=   None    Shift=    0.000
 RMSDP=8.49D-06 MaxDP=3.80D-05 DE=-2.43D-09 OVMax= 0.00D+00

 Cycle  12  Pass 1  IDiag  1:
 E= -33.0149732653182     Delta-E=       -0.000000006068 Rises=F Damp=F
 DIIS: error= 2.45D-09 at cycle  12 NSaved=  12.
 NSaved=12 IEnMin= 8 EnMin= -33.0149732674718     IErMin=11 ErrMin= 1.69D-09
 ErrMax= 2.45D-09  0.00D+00 EMaxC= 1.00D-01 BMatC= 3.46D-17 BMatP= 4.73D-17
 IDIUse=1 WtCom= 1.00D+00 WtEn= 0.00D+00
 Coeff-Com:  0.158D-07-0.229D-07 0.717D-08-0.783D-06-0.317D-06-0.868D-06
 Coeff-Com: -0.775D-04 0.531D-03-0.217D-01 0.386D+00 0.480D+00 0.156D+00
 Coeff:      0.158D-07-0.229D-07 0.717D-08-0.783D-06-0.317D-06-0.868D-06
 Coeff:     -0.775D-04 0.531D-03-0.217D-01 0.386D+00 0.480D+00 0.156D+00
 Gap=     0.429 Goal=   None    Shift=    0.000
 RMSDP=1.28D-06 MaxDP=5.07D-06 DE=-6.07D-09 OVMax= 0.00D+00

 Cycle  13  Pass 1  IDiag  1:
 E= -33.0149732712699     Delta-E=       -0.000000005952 Rises=F Damp=F
 DIIS: error= 4.71D-09 at cycle  13 NSaved=  13.
 NSaved=13 IEnMin=13 EnMin= -33.0149732712699     IErMin=11 ErrMin= 1.69D-09
 ErrMax= 4.71D-09  0.00D+00 EMaxC= 1.00D-01 BMatC= 1.32D-16 BMatP= 3.46D-17
 IDIUse=1 WtCom= 1.00D+00 WtEn= 0.00D+00
 Coeff-Com:  0.756D-08-0.111D-07 0.167D-07-0.202D-06-0.103D-06-0.152D-05
 Coeff-Com: -0.349D-04 0.271D-03-0.776D-02 0.912D-01-0.340D+00 0.242D+01
 Coeff-Com: -0.117D+01
 Coeff:      0.756D-08-0.111D-07 0.167D-07-0.202D-06-0.103D-06-0.152D-05
 Coeff:     -0.349D-04 0.271D-03-0.776D-02 0.912D-01-0.340D+00 0.242D+01
 Coeff:     -0.117D+01
 Gap=     0.429 Goal=   None    Shift=    0.000
 RMSDP=3.51D-06 MaxDP=1.22D-05 DE=-5.95D-09 OVMax= 0.00D+00

 Cycle  14  Pass 1  IDiag  1:
 E= -33.0149732717938     Delta-E=       -0.000000000524 Rises=F Damp=F
 DIIS: error= 5.18D-09 at cycle  14 NSaved=  14.
 NSaved=14 IEnMin=14 EnMin= -33.0149732717938     IErMin=11 ErrMin= 1.69D-09
 ErrMax= 5.18D-09  0.00D+00 EMaxC= 1.00D-01 BMatC= 1.66D-16 BMatP= 3.46D-17
 IDIUse=1 WtCom= 1.00D+00 WtEn= 0.00D+00
 Coeff-Com:  0.502D-08-0.725D-08 0.121D-07-0.588D-06-0.207D-06 0.176D-05
 Coeff-Com: -0.600D-04 0.443D-03-0.150D-01 0.311D+00-0.104D+01 0.338D+01
 Coeff-Com: -0.592D+01 0.428D+01
 Coeff:      0.502D-08-0.725D-08 0.121D-07-0.588D-06-0.207D-06 0.176D-05
 Coeff:     -0.600D-04 0.443D-03-0.150D-01 0.311D+00-0.104D+01 0.338D+01
 Coeff:     -0.592D+01 0.428D+01
 Gap=     0.429 Goal=   None    Shift=    0.000
 RMSDP=6.65D-06 MaxDP=2.92D-05 DE=-5.24D-10 OVMax= 0.00D+00

 Cycle  15  Pass 1  IDiag  1:
 E= -33.0149732664386     Delta-E=        0.000000005355 Rises=F Damp=F
 DIIS: error= 3.46D-09 at cycle  15 NSaved=  15.
 NSaved=15 IEnMin=14 EnMin= -33.0149732717938     IErMin=11 ErrMin= 1.69D-09
 ErrMax= 3.46D-09  0.00D+00 EMaxC= 1.00D-01 BMatC= 1.77D-16 BMatP= 3.46D-17
 IDIUse=1 WtCom= 1.00D+00 WtEn= 0.00D+00
 Coeff-Com: -0.162D-08 0.228D-08-0.116D-07 0.155D-07 0.290D-07-0.327D-06
 Coeff-Com:  0.324D-05 0.352D-04-0.727D-03 0.253D-01-0.279D+00 0.257D+01
 Coeff-Com: -0.323D+01 0.168D+01 0.244D+00
 Coeff:     -0.162D-08 0.228D-08-0.116D-07 0.155D-07 0.290D-07-0.327D-06
 Coeff:      0.324D-05 0.352D-04-0.727D-03 0.253D-01-0.279D+00 0.257D+01
 Coeff:     -0.323D+01 0.168D+01 0.244D+00
 Gap=     0.429 Goal=   None    Shift=    0.000
 RMSDP=2.95D-06 MaxDP=1.48D-05 DE= 5.36D-09 OVMax= 0.00D+00

 Cycle  16  Pass 1  IDiag  1:
 E= -33.0149732615492     Delta-E=        0.000000004889 Rises=F Damp=F
 DIIS: error= 2.47D-09 at cycle  16 NSaved=  16.
 NSaved=16 IEnMin=14 EnMin= -33.0149732717938     IErMin=11 ErrMin= 1.69D-09
 ErrMax= 2.47D-09  0.00D+00 EMaxC= 1.00D-01 BMatC= 7.41D-17 BMatP= 3.46D-17
 IDIUse=1 WtCom= 1.00D+00 WtEn= 0.00D+00
 Large coefficients: NSaved= 16 BigCof=    0.00 CofMax=   10.00 Det=-7.87D-22
 Inversion failed.  Reducing to 15 matrices.
 Coeff-Com: -0.143D-10-0.111D-08-0.142D-07-0.952D-09 0.140D-06 0.186D-05
 Coeff-Com:  0.204D-04-0.413D-03 0.169D-01-0.134D+00 0.221D+01-0.243D+01
 Coeff-Com:  0.106D+01 0.164D+00 0.113D+00
 Coeff:     -0.143D-10-0.111D-08-0.142D-07-0.952D-09 0.140D-06 0.186D-05
 Coeff:      0.204D-04-0.413D-03 0.169D-01-0.134D+00 0.221D+01-0.243D+01
 Coeff:      0.106D+01 0.164D+00 0.113D+00
 Gap=     0.429 Goal=   None    Shift=    0.000
 RMSDP=1.17D-06 MaxDP=5.03D-06 DE= 4.89D-09 OVMax= 0.00D+00

 Cycle  17  Pass 1  IDiag  1:
 E= -33.0149732576784     Delta-E=        0.000000003871 Rises=F Damp=F
 DIIS: error= 1.16D-09 at cycle  17 NSaved=  16.
 NSaved=16 IEnMin=13 EnMin= -33.0149732717938     IErMin=16 ErrMin= 1.16D-09
 ErrMax= 1.16D-09  0.00D+00 EMaxC= 1.00D-01 BMatC= 1.97D-17 BMatP= 3.46D-17
 IDIUse=1 WtCom= 1.00D+00 WtEn= 0.00D+00
 Large coefficients: NSaved= 16 BigCof=    0.00 CofMax=   10.00 Det=-4.78D-22
 Inversion failed.  Reducing to 15 matrices.
 Coeff-Com: -0.145D-08-0.117D-07 0.133D-08 0.144D-06 0.183D-05 0.203D-04
 Coeff-Com: -0.374D-03 0.159D-01-0.136D+00 0.220D+01-0.243D+01 0.107D+01
 Coeff-Com:  0.163D+00 0.104D+00 0.134D-01
 Coeff:     -0.145D-08-0.117D-07 0.133D-08 0.144D-06 0.183D-05 0.203D-04
 Coeff:     -0.374D-03 0.159D-01-0.136D+00 0.220D+01-0.243D+01 0.107D+01
 Coeff:      0.163D+00 0.104D+00 0.134D-01
 Gap=     0.429 Goal=   None    Shift=    0.000
 RMSDP=4.41D-08 MaxDP=1.54D-07 DE= 3.87D-09 OVMax= 0.00D+00

 Cycle  18  Pass 1  IDiag  1:
 E= -33.0149732671808     Delta-E=       -0.000000009502 Rises=F Damp=F
 DIIS: error= 4.29D-09 at cycle  18 NSaved=  16.
 NSaved=16 IEnMin=12 EnMin= -33.0149732717938     IErMin=15 ErrMin= 1.16D-09
 ErrMax= 4.29D-09  0.00D+00 EMaxC= 1.00D-01 BMatC= 1.16D-16 BMatP= 1.97D-17
 IDIUse=1 WtCom= 1.00D+00 WtEn= 0.00D+00
 Large coefficients: NSaved= 16 BigCof=    0.00 CofMax=   10.00 Det=-8.54D-22
 Inversion failed.  Reducing to 15 matrices.
 Coeff-Com: -0.840D-08 0.278D-10 0.244D-06 0.250D-05 0.119D-04-0.726D-04
 Coeff-Com:  0.102D-01-0.113D+00 0.225D+01-0.242D+01 0.104D+01 0.192D+00
 Coeff-Com:  0.125D+00-0.382D-01-0.474D-01
 Coeff:     -0.840D-08 0.278D-10 0.244D-06 0.250D-05 0.119D-04-0.726D-04
 Coeff:      0.102D-01-0.113D+00 0.225D+01-0.242D+01 0.104D+01 0.192D+00
 Coeff:      0.125D+00-0.382D-01-0.474D-01
 Gap=     0.429 Goal=   None    Shift=    0.000
 RMSDP=1.53D-07 MaxDP=6.00D-07 DE=-9.50D-09 OVMax= 0.00D+00

 Cycle  19  Pass 1  IDiag  1:
 E= -33.0149732596284     Delta-E=        0.000000007552 Rises=F Damp=F
 DIIS: error= 2.24D-09 at cycle  19 NSaved=  16.
 NSaved=16 IEnMin=11 EnMin= -33.0149732717938     IErMin=14 ErrMin= 1.16D-09
 ErrMax= 2.24D-09  0.00D+00 EMaxC= 1.00D-01 BMatC= 3.68D-17 BMatP= 1.97D-17
 IDIUse=1 WtCom= 1.00D+00 WtEn= 0.00D+00
 Large coefficients: NSaved= 16 BigCof=    0.00 CofMax=   10.00 Det=-9.73D-23
 Inversion failed.  Reducing to 15 matrices.
 Coeff-Com:  0.193D-08 0.258D-06 0.332D-05 0.959D-06 0.250D-03 0.397D-02
 Coeff-Com: -0.782D-01 0.211D+01-0.228D+01 0.998D+00 0.137D+00 0.163D+00
 Coeff-Com:  0.570D-01-0.367D-01-0.725D-01
 Coeff:      0.193D-08 0.258D-06 0.332D-05 0.959D-06 0.250D-03 0.397D-02
 Coeff:     -0.782D-01 0.211D+01-0.228D+01 0.998D+00 0.137D+00 0.163D+00
 Coeff:      0.570D-01-0.367D-01-0.725D-01
 Gap=     0.429 Goal=   None    Shift=    0.000
 RMSDP=2.42D-07 MaxDP=1.25D-06 DE= 7.55D-09 OVMax= 0.00D+00

 Cycle  20  Pass 1  IDiag  1:
 E= -33.0149732515957     Delta-E=        0.000000008033 Rises=F Damp=F
 DIIS: error= 1.18D-09 at cycle  20 NSaved=  16.
 NSaved=16 IEnMin=10 EnMin= -33.0149732717938     IErMin=13 ErrMin= 1.16D-09
 ErrMax= 1.18D-09  0.00D+00 EMaxC= 1.00D-01 BMatC= 2.03D-17 BMatP= 1.97D-17
 IDIUse=1 WtCom= 1.00D+00 WtEn= 0.00D+00
 Large coefficients: NSaved= 16 BigCof=    0.00 CofMax=   10.00 Det=-3.85D-23
 Inversion failed.  Reducing to 15 matrices.
 Coeff-Com:  0.274D-06 0.350D-05-0.761D-05 0.354D-03 0.244D-02-0.188D-01
 Coeff-Com:  0.192D+01-0.218D+01 0.103D+01 0.702D-01 0.239D+00 0.237D+00
 Coeff-Com: -0.101D+00-0.141D+00-0.681D-01
 Coeff:      0.274D-06 0.350D-05-0.761D-05 0.354D-03 0.244D-02-0.188D-01
 Coeff:      0.192D+01-0.218D+01 0.103D+01 0.702D-01 0.239D+00 0.237D+00
 Coeff:     -0.101D+00-0.141D+00-0.681D-01
 Gap=     0.429 Goal=   None    Shift=    0.000
 RMSDP=3.75D-07 MaxDP=2.00D-06 DE= 8.03D-09 OVMax= 0.00D+00

 Cycle  21  Pass 1  IDiag  1:
 E= -33.0149732539386     Delta-E=       -0.000000002343 Rises=F Damp=F
 DIIS: error= 1.39D-09 at cycle  21 NSaved=  16.
 NSaved=16 IEnMin= 9 EnMin= -33.0149732717938     IErMin=12 ErrMin= 1.16D-09
 ErrMax= 1.39D-09  0.00D+00 EMaxC= 1.00D-01 BMatC= 2.51D-17 BMatP= 1.97D-17
 IDIUse=1 WtCom= 1.00D+00 WtEn= 0.00D+00
 Large coefficients: NSaved= 16 BigCof=    0.00 CofMax=   10.00 Det=-2.37D-23
 Inversion failed.  Reducing to 15 matrices.
 Large coefficients: NSaved= 15 BigCof=    0.00 CofMax=   10.00 Det=-3.48D-23
 Inversion failed.  Reducing to 14 matrices.
 Coeff-Com:  0.664D-05-0.442D-04-0.451D-02 0.650D-01 0.741D+00-0.590D+00
 Coeff-Com:  0.415D+00-0.319D+00 0.158D+00 0.104D+01 0.164D+00-0.724D+00
 Coeff-Com:  0.653D+00-0.593D+00
 Coeff:      0.664D-05-0.442D-04-0.451D-02 0.650D-01 0.741D+00-0.590D+00
 Coeff:      0.415D+00-0.319D+00 0.158D+00 0.104D+01 0.164D+00-0.724D+00
 Coeff:      0.653D+00-0.593D+00
 Gap=     0.429 Goal=   None    Shift=    0.000
 RMSDP=2.36D-06 MaxDP=1.00D-05 DE=-2.34D-09 OVMax= 0.00D+00

 Cycle  22  Pass 1  IDiag  1:
 E= -33.0149732552191     Delta-E=       -0.000000001281 Rises=F Damp=F
 DIIS: error= 3.61D-10 at cycle  22 NSaved=  15.
 NSaved=15 IEnMin= 7 EnMin= -33.0149732717938     IErMin=15 ErrMin= 3.61D-10
 ErrMax= 3.61D-10  0.00D+00 EMaxC= 1.00D-01 BMatC= 2.40D-18 BMatP= 1.97D-17
 IDIUse=1 WtCom= 1.00D+00 WtEn= 0.00D+00
 Large coefficients: NSaved= 15 BigCof=    0.00 CofMax=   10.00 Det=-1.96D-23
 Inversion failed.  Reducing to 14 matrices.
 Coeff-Com:  0.101D-04-0.570D-04-0.258D-02 0.133D+00 0.153D+01-0.137D+01
 Coeff-Com:  0.367D+00-0.682D+00 0.402D+00 0.189D+01 0.181D+00-0.186D+00
 Coeff-Com: -0.357D+00-0.904D+00
 Coeff:      0.101D-04-0.570D-04-0.258D-02 0.133D+00 0.153D+01-0.137D+01
 Coeff:      0.367D+00-0.682D+00 0.402D+00 0.189D+01 0.181D+00-0.186D+00
 Coeff:     -0.357D+00-0.904D+00
 Gap=     0.429 Goal=   None    Shift=    0.000
 RMSDP=2.78D-06 MaxDP=9.71D-06 DE=-1.28D-09 OVMax= 0.00D+00

 Cycle  23  Pass 1  IDiag  1:
 E= -33.0149732524979     Delta-E=        0.000000002721 Rises=F Damp=F
 DIIS: error= 6.42D-10 at cycle  23 NSaved=  15.
 NSaved=15 IEnMin= 7 EnMin= -33.0149732717938     IErMin=14 ErrMin= 3.61D-10
 ErrMax= 6.42D-10  0.00D+00 EMaxC= 1.00D-01 BMatC= 3.69D-18 BMatP= 2.40D-18
 IDIUse=1 WtCom= 1.00D+00 WtEn= 0.00D+00
 Coeff-Com:  0.150D-04-0.834D-04 0.246D-02 0.121D+00 0.234D+01-0.222D+01
 Coeff-Com:  0.156D+00-0.820D+00 0.481D+00 0.200D+01 0.584D+00 0.338D+00
 Coeff-Com: -0.412D+00-0.921D+00-0.651D+00
 Coeff:      0.150D-04-0.834D-04 0.246D-02 0.121D+00 0.234D+01-0.222D+01
 Coeff:      0.156D+00-0.820D+00 0.481D+00 0.200D+01 0.584D+00 0.338D+00
 Coeff:     -0.412D+00-0.921D+00-0.651D+00
 Gap=     0.429 Goal=   None    Shift=    0.000
 RMSDP=1.62D-06 MaxDP=6.77D-06 DE= 2.72D-09 OVMax= 0.00D+00

 Cycle  24  Pass 1  IDiag  1:
 E= -33.0149732603996     Delta-E=       -0.000000007902 Rises=F Damp=F
 DIIS: error= 2.01D-09 at cycle  24 NSaved=  16.
 NSaved=16 IEnMin= 7 EnMin= -33.0149732717938     IErMin=14 ErrMin= 3.61D-10
 ErrMax= 2.01D-09  0.00D+00 EMaxC= 1.00D-01 BMatC= 4.16D-17 BMatP= 2.40D-18
 IDIUse=1 WtCom= 1.00D+00 WtEn= 0.00D+00
 Large coefficients: NSaved= 16 BigCof=    0.00 CofMax=   10.00 Det=-1.01D-22
 Inversion failed.  Reducing to 15 matrices.
 Coeff-Com:  0.199D-04-0.214D-03-0.907D-03 0.507D-01 0.239D+01-0.234D+01
 Coeff-Com: -0.218D+00-0.853D+00-0.421D-02 0.113D+01 0.118D+01 0.493D+00
 Coeff-Com: -0.145D+01-0.181D+00 0.797D+00
 Coeff:      0.199D-04-0.214D-03-0.907D-03 0.507D-01 0.239D+01-0.234D+01
 Coeff:     -0.218D+00-0.853D+00-0.421D-02 0.113D+01 0.118D+01 0.493D+00
 Coeff:     -0.145D+01-0.181D+00 0.797D+00
 Gap=     0.429 Goal=   None    Shift=    0.000
 RMSDP=4.95D-06 MaxDP=1.89D-05 DE=-7.90D-09 OVMax= 0.00D+00

 Cycle  25  Pass 1  IDiag  1:
 E= -33.0149732708624     Delta-E=       -0.000000010463 Rises=F Damp=F
 DIIS: error= 7.06D-09 at cycle  25 NSaved=  16.
 NSaved=16 IEnMin= 7 EnMin= -33.0149732717938     IErMin=13 ErrMin= 3.61D-10
 ErrMax= 7.06D-09  0.00D+00 EMaxC= 1.00D-01 BMatC= 3.05D-16 BMatP= 2.40D-18
 IDIUse=1 WtCom= 1.00D+00 WtEn= 0.00D+00
 Large coefficients: NSaved= 16 BigCof=    0.00 CofMax=   10.00 Det=-8.75D-23
 Inversion failed.  Reducing to 15 matrices.
 Coeff-Com:  0.154D-04-0.174D-03 0.145D-02 0.626D-01 0.214D+01-0.212D+01
 Coeff-Com: -0.139D+00-0.811D+00 0.961D-01 0.135D+01 0.770D+00 0.224D+00
 Coeff-Com: -0.123D+01 0.365D+00 0.291D+00
 Coeff:      0.154D-04-0.174D-03 0.145D-02 0.626D-01 0.214D+01-0.212D+01
 Coeff:     -0.139D+00-0.811D+00 0.961D-01 0.135D+01 0.770D+00 0.224D+00
 Coeff:     -0.123D+01 0.365D+00 0.291D+00
 Gap=     0.429 Goal=   None    Shift=    0.000
 RMSDP=8.61D-07 MaxDP=4.19D-06 DE=-1.05D-08 OVMax= 0.00D+00

 Cycle  26  Pass 1  IDiag  1:
 E= -33.0149732718956     Delta-E=       -0.000000001033 Rises=F Damp=F
 DIIS: error= 8.22D-09 at cycle  26 NSaved=  16.
 NSaved=16 IEnMin=16 EnMin= -33.0149732718956     IErMin=13 ErrMin= 3.61D-10
 ErrMax= 8.22D-09  0.00D+00 EMaxC= 1.00D-01 BMatC= 4.10D-16 BMatP= 2.40D-18
 IDIUse=1 WtCom= 1.00D+00 WtEn= 0.00D+00
 Large coefficients: NSaved= 16 BigCof=    0.00 CofMax=   10.00 Det=-1.89D-23
 Inversion failed.  Reducing to 15 matrices.
 Large coefficients: NSaved= 15 BigCof=    0.00 CofMax=   10.00 Det=-2.15D-23
 Inversion failed.  Reducing to 14 matrices.
 Coeff-Com: -0.467D-05-0.723D-04 0.147D+00 0.313D+00-0.611D+00 0.353D+00
 Coeff-Com: -0.775D+00 0.638D+00 0.636D+00 0.175D+00-0.300D+00 0.242D+00
 Coeff-Com:  0.117D+01-0.993D+00
 Coeff:     -0.467D-05-0.723D-04 0.147D+00 0.313D+00-0.611D+00 0.353D+00
 Coeff:     -0.775D+00 0.638D+00 0.636D+00 0.175D+00-0.300D+00 0.242D+00
 Coeff:      0.117D+01-0.993D+00
 Gap=     0.429 Goal=   None    Shift=    0.000
 RMSDP=5.35D-06 MaxDP=1.99D-05 DE=-1.03D-09 OVMax= 0.00D+00

 Cycle  27  Pass 1  IDiag  1:
 E= -33.0149732586679     Delta-E=        0.000000013228 Rises=F Damp=F
 DIIS: error= 1.82D-09 at cycle  27 NSaved=  15.
 NSaved=15 IEnMin=14 EnMin= -33.0149732718956     IErMin= 9 ErrMin= 1.16D-09
 ErrMax= 1.82D-09  0.00D+00 EMaxC= 1.00D-01 BMatC= 2.97D-17 BMatP= 1.97D-17
 IDIUse=1 WtCom= 1.00D+00 WtEn= 0.00D+00
 Coeff-Com: -0.486D-05-0.725D-04 0.143D+00 0.269D+00-0.577D+00 0.332D+00
 Coeff-Com: -0.766D+00 0.613D+00 0.536D+00 0.241D+00-0.264D+00 0.296D+00
 Coeff-Com:  0.117D+01-0.103D+01 0.431D-01
 Coeff:     -0.486D-05-0.725D-04 0.143D+00 0.269D+00-0.577D+00 0.332D+00
 Coeff:     -0.766D+00 0.613D+00 0.536D+00 0.241D+00-0.264D+00 0.296D+00
 Coeff:      0.117D+01-0.103D+01 0.431D-01
 Gap=     0.429 Goal=   None    Shift=    0.000
 RMSDP=5.02D-08 MaxDP=1.86D-07 DE= 1.32D-08 OVMax= 0.00D+00

 Cycle  28  Pass 1  IDiag  1:
 E= -33.0149732542296     Delta-E=        0.000000004438 Rises=F Damp=F
 DIIS: error= 4.60D-10 at cycle  28 NSaved=  16.
 NSaved=16 IEnMin=14 EnMin= -33.0149732718956     IErMin=16 ErrMin= 4.60D-10
 ErrMax= 4.60D-10  0.00D+00 EMaxC= 1.00D-01 BMatC= 4.08D-18 BMatP= 1.97D-17
 IDIUse=1 WtCom= 1.00D+00 WtEn= 0.00D+00
 Large coefficients: NSaved= 16 BigCof=    0.00 CofMax=   10.00 Det=-2.61D-23
 Inversion failed.  Reducing to 15 matrices.
 Large coefficients: NSaved= 15 BigCof=    0.00 CofMax=   10.00 Det=-2.67D-23
 Inversion failed.  Reducing to 14 matrices.
 Coeff-Com: -0.110D-04 0.147D+00-0.418D+00 0.212D-01 0.124D+00-0.927D+00
 Coeff-Com:  0.651D+00 0.681D+00-0.114D+00 0.629D+00 0.150D+01-0.164D+01
 Coeff-Com:  0.307D+00 0.360D-01
 Coeff:     -0.110D-04 0.147D+00-0.418D+00 0.212D-01 0.124D+00-0.927D+00
 Coeff:      0.651D+00 0.681D+00-0.114D+00 0.629D+00 0.150D+01-0.164D+01
 Coeff:      0.307D+00 0.360D-01
 Gap=     0.429 Goal=   None    Shift=    0.000
 RMSDP=6.93D-07 MaxDP=3.07D-06 DE= 4.44D-09 OVMax= 0.00D+00

 Cycle  29  Pass 1  IDiag  1:
 E= -33.0149732772216     Delta-E=       -0.000000022992 Rises=F Damp=F
 DIIS: error= 8.74D-09 at cycle  29 NSaved=  15.
 NSaved=15 IEnMin=15 EnMin= -33.0149732772216     IErMin=14 ErrMin= 4.60D-10
 ErrMax= 8.74D-09  0.00D+00 EMaxC= 1.00D-01 BMatC= 4.90D-16 BMatP= 4.08D-18
 IDIUse=1 WtCom= 1.00D+00 WtEn= 0.00D+00
 Coeff-Com: -0.527D-05 0.676D-01-0.245D+00 0.113D+00-0.289D-01-0.398D+00
 Coeff-Com:  0.276D+00 0.507D+00 0.620D-01 0.966D+00-0.262D-01-0.114D+01
 Coeff-Com:  0.634D+00-0.363D+00 0.573D+00
 Coeff:     -0.527D-05 0.676D-01-0.245D+00 0.113D+00-0.289D-01-0.398D+00
 Coeff:      0.276D+00 0.507D+00 0.620D-01 0.966D+00-0.262D-01-0.114D+01
 Coeff:      0.634D+00-0.363D+00 0.573D+00
 Gap=     0.429 Goal=   None    Shift=    0.000
 RMSDP=6.42D-06 MaxDP=2.49D-05 DE=-2.30D-08 OVMax= 0.00D+00

 Cycle  30  Pass 1  IDiag  1:
 E= -33.0149732551464     Delta-E=        0.000000022075 Rises=F Damp=F
 DIIS: error= 1.15D-09 at cycle  30 NSaved=  16.
 NSaved=16 IEnMin=15 EnMin= -33.0149732772216     IErMin=14 ErrMin= 4.60D-10
 ErrMax= 1.15D-09  0.00D+00 EMaxC= 1.00D-01 BMatC= 1.60D-17 BMatP= 4.08D-18
 IDIUse=1 WtCom= 1.00D+00 WtEn= 0.00D+00
 Large coefficients: NSaved= 16 BigCof=    0.00 CofMax=   10.00 Det=-7.16D-23
 Inversion failed.  Reducing to 15 matrices.
 Coeff-Com: -0.733D-06 0.119D-01 0.117D+00-0.104D+00-0.113D+00-0.283D+00
 Coeff-Com:  0.358D+00 0.257D+00-0.303D+00 0.375D+00 0.685D+00-0.897D+00
 Coeff-Com:  0.341D+00 0.198D+00 0.358D+00
 Coeff:     -0.733D-06 0.119D-01 0.117D+00-0.104D+00-0.113D+00-0.283D+00
 Coeff:      0.358D+00 0.257D+00-0.303D+00 0.375D+00 0.685D+00-0.897D+00
 Coeff:      0.341D+00 0.198D+00 0.358D+00
 Gap=     0.429 Goal=   None    Shift=    0.000
 RMSDP=3.39D-06 MaxDP=1.26D-05 DE= 2.21D-08 OVMax= 0.00D+00

 Cycle  31  Pass 1  IDiag  1:
 E= -33.0149732610690     Delta-E=       -0.000000005923 Rises=F Damp=F
 DIIS: error= 2.32D-09 at cycle  31 NSaved=  16.
 NSaved=16 IEnMin=14 EnMin= -33.0149732772216     IErMin=15 ErrMin= 1.15D-09
 ErrMax= 2.32D-09  0.00D+00 EMaxC= 1.00D-01 BMatC= 3.71D-17 BMatP= 1.60D-17
 IDIUse=1 WtCom= 1.00D+00 WtEn= 0.00D+00
 Large coefficients: NSaved= 16 BigCof=    0.00 CofMax=   10.00 Det=-6.03D-23
 Inversion failed.  Reducing to 15 matrices.
 Coeff-Com: -0.144D-04 0.502D-01-0.109D+01 0.913D+00 0.201D-01-0.512D+00
 Coeff-Com:  0.544D+00 0.278D+00-0.664D+00 0.942D+00 0.938D+00-0.153D+01
 Coeff-Com:  0.195D+00 0.328D+00 0.584D+00
 Coeff:     -0.144D-04 0.502D-01-0.109D+01 0.913D+00 0.201D-01-0.512D+00
 Coeff:      0.544D+00 0.278D+00-0.664D+00 0.942D+00 0.938D+00-0.153D+01
 Coeff:      0.195D+00 0.328D+00 0.584D+00
 Gap=     0.429 Goal=   None    Shift=    0.000
 RMSDP=3.74D-06 MaxDP=1.39D-05 DE=-5.92D-09 OVMax= 0.00D+00

 Cycle  32  Pass 1  IDiag  1:
 E= -33.0149732622331     Delta-E=       -0.000000001164 Rises=F Damp=F
 DIIS: error= 1.67D-09 at cycle  32 NSaved=  16.
 NSaved=16 IEnMin=13 EnMin= -33.0149732772216     IErMin=14 ErrMin= 1.15D-09
 ErrMax= 1.67D-09  0.00D+00 EMaxC= 1.00D-01 BMatC= 3.32D-17 BMatP= 1.60D-17
 IDIUse=1 WtCom= 1.00D+00 WtEn= 0.00D+00
 Large coefficients: NSaved= 16 BigCof=    0.00 CofMax=   10.00 Det=-6.77D-23
 Inversion failed.  Reducing to 15 matrices.
 Large coefficients: NSaved= 15 BigCof=    0.00 CofMax=   10.00 Det=-8.96D-23
 Inversion failed.  Reducing to 14 matrices.
 Coeff-Com: -0.607D-06 0.151D+00-0.911D-01-0.100D-01-0.532D-01 0.498D+00
 Coeff-Com:  0.699D-01-0.358D+00 0.437D+00 0.302D+00-0.862D+00 0.283D+00
 Coeff-Com:  0.178D+00 0.457D+00
 Coeff:     -0.607D-06 0.151D+00-0.911D-01-0.100D-01-0.532D-01 0.498D+00
 Coeff:      0.699D-01-0.358D+00 0.437D+00 0.302D+00-0.862D+00 0.283D+00
 Coeff:      0.178D+00 0.457D+00
 Gap=     0.429 Goal=   None    Shift=    0.000
 RMSDP=1.58D-06 MaxDP=8.55D-06 DE=-1.16D-09 OVMax= 0.00D+00

 Cycle  33  Pass 1  IDiag  1:
 E= -33.0149732717064     Delta-E=       -0.000000009473 Rises=F Damp=F
 DIIS: error= 5.46D-09 at cycle  33 NSaved=  15.
 NSaved=15 IEnMin=12 EnMin= -33.0149732772216     IErMin=14 ErrMin= 1.67D-09
 ErrMax= 5.46D-09  0.00D+00 EMaxC= 1.00D-01 BMatC= 1.95D-16 BMatP= 3.32D-17
 IDIUse=1 WtCom= 1.00D+00 WtEn= 0.00D+00
 Large coefficients: NSaved= 15 BigCof=    0.00 CofMax=   10.00 Det=-3.91D-23
 Inversion failed.  Reducing to 14 matrices.
 Coeff-Com:  0.298D-05 0.227D+00-0.359D+00-0.288D+00-0.454D+00 0.578D+00
 Coeff-Com:  0.208D+00 0.613D+00 0.139D+01-0.159D+01 0.187D+00-0.397D+00
 Coeff-Com:  0.438D+00 0.438D+00
 Coeff:      0.298D-05 0.227D+00-0.359D+00-0.288D+00-0.454D+00 0.578D+00
 Coeff:      0.208D+00 0.613D+00 0.139D+01-0.159D+01 0.187D+00-0.397D+00
 Coeff:      0.438D+00 0.438D+00
 Gap=     0.429 Goal=   None    Shift=    0.000
 RMSDP=3.09D-06 MaxDP=1.11D-05 DE=-9.47D-09 OVMax= 0.00D+00

 Cycle  34  Pass 1  IDiag  1:
 E= -33.0149732724777     Delta-E=       -0.000000000771 Rises=F Damp=F
 DIIS: error= 6.19D-09 at cycle  34 NSaved=  15.
 NSaved=15 IEnMin=11 EnMin= -33.0149732772216     IErMin=13 ErrMin= 1.67D-09
 ErrMax= 6.19D-09  0.00D+00 EMaxC= 1.00D-01 BMatC= 2.43D-16 BMatP= 3.32D-17
 IDIUse=1 WtCom= 1.00D+00 WtEn= 0.00D+00
 Coeff-Com: -0.233D-05-0.434D+00 0.261D+00-0.517D+00-0.643D+00 0.345D+00
 Coeff-Com:  0.626D+00 0.124D+01 0.106D+01-0.176D+01 0.152D+00-0.262D+00
 Coeff-Com:  0.115D+00 0.386D+00 0.426D+00
 Coeff:     -0.233D-05-0.434D+00 0.261D+00-0.517D+00-0.643D+00 0.345D+00
 Coeff:      0.626D+00 0.124D+01 0.106D+01-0.176D+01 0.152D+00-0.262D+00
 Coeff:      0.115D+00 0.386D+00 0.426D+00
 Gap=     0.429 Goal=   None    Shift=    0.000
 RMSDP=1.61D-06 MaxDP=5.63D-06 DE=-7.71D-10 OVMax= 0.00D+00

 Cycle  35  Pass 1  IDiag  1:
 E= -33.0149732591190     Delta-E=        0.000000013359 Rises=F Damp=F
 DIIS: error= 1.05D-09 at cycle  35 NSaved=  16.
 NSaved=16 IEnMin=11 EnMin= -33.0149732772216     IErMin=16 ErrMin= 1.05D-09
 ErrMax= 1.05D-09  0.00D+00 EMaxC= 1.00D-01 BMatC= 1.16D-17 BMatP= 3.32D-17
 IDIUse=1 WtCom= 1.00D+00 WtEn= 0.00D+00
 Large coefficients: NSaved= 16 BigCof=    0.00 CofMax=   10.00 Det=-5.42D-23
 Inversion failed.  Reducing to 15 matrices.
 Coeff-Com:  0.613D-05 0.705D+00-0.691D+00-0.120D+00-0.274D+00 0.968D+00
 Coeff-Com: -0.274D+00 0.122D+01-0.934D+00-0.730D-01-0.246D+00 0.128D+01
 Coeff-Com:  0.301D-01 0.964D-01-0.684D+00
 Coeff:      0.613D-05 0.705D+00-0.691D+00-0.120D+00-0.274D+00 0.968D+00
 Coeff:     -0.274D+00 0.122D+01-0.934D+00-0.730D-01-0.246D+00 0.128D+01
 Coeff:      0.301D-01 0.964D-01-0.684D+00
 Gap=     0.429 Goal=   None    Shift=    0.000
 RMSDP=3.14D-06 MaxDP=1.15D-05 DE= 1.34D-08 OVMax= 0.00D+00

 Cycle  36  Pass 1  IDiag  1:
 E= -33.0149732536475     Delta-E=        0.000000005472 Rises=F Damp=F
 DIIS: error= 7.79D-10 at cycle  36 NSaved=  16.
 NSaved=16 IEnMin=10 EnMin= -33.0149732772216     IErMin=16 ErrMin= 7.79D-10
 ErrMax= 7.79D-10  0.00D+00 EMaxC= 1.00D-01 BMatC= 5.95D-18 BMatP= 1.16D-17
 IDIUse=1 WtCom= 1.00D+00 WtEn= 0.00D+00
 Large coefficients: NSaved= 16 BigCof=    0.00 CofMax=   10.00 Det=-7.52D-23
 Inversion failed.  Reducing to 15 matrices.
 Large coefficients: NSaved= 15 BigCof=    0.00 CofMax=   10.00 Det=-8.35D-23
 Inversion failed.  Reducing to 14 matrices.
 Coeff-Com:  0.122D-04 0.144D+01-0.118D+01-0.290D+00 0.243D+00 0.172D+00
 Coeff-Com: -0.131D+00 0.274D+00-0.369D+00 0.676D+00-0.308D+00 0.872D+00
 Coeff-Com: -0.751D+00 0.357D+00
 Coeff:      0.122D-04 0.144D+01-0.118D+01-0.290D+00 0.243D+00 0.172D+00
 Coeff:     -0.131D+00 0.274D+00-0.369D+00 0.676D+00-0.308D+00 0.872D+00
 Coeff:     -0.751D+00 0.357D+00
 Gap=     0.429 Goal=   None    Shift=    0.000
 RMSDP=1.83D-06 MaxDP=7.89D-06 DE= 5.47D-09 OVMax= 0.00D+00

 Cycle  37  Pass 1  IDiag  1:
 E= -33.0149732664678     Delta-E=       -0.000000012820 Rises=F Damp=F
 DIIS: error= 4.43D-09 at cycle  37 NSaved=  15.
 NSaved=15 IEnMin= 9 EnMin= -33.0149732772216     IErMin=14 ErrMin= 7.79D-10
 ErrMax= 4.43D-09  0.00D+00 EMaxC= 1.00D-01 BMatC= 1.22D-16 BMatP= 5.95D-18
 IDIUse=1 WtCom= 1.00D+00 WtEn= 0.00D+00
 Coeff-Com:  0.107D-04 0.821D+00-0.755D+00-0.222D+00 0.142D+00-0.263D-01
 Coeff-Com:  0.112D+00-0.191D+00-0.477D+00 0.982D+00-0.376D+00 0.103D+01
 Coeff-Com: -0.118D+01 0.505D+00 0.631D+00
 Coeff:      0.107D-04 0.821D+00-0.755D+00-0.222D+00 0.142D+00-0.263D-01
 Coeff:      0.112D+00-0.191D+00-0.477D+00 0.982D+00-0.376D+00 0.103D+01
 Coeff:     -0.118D+01 0.505D+00 0.631D+00
 Gap=     0.429 Goal=   None    Shift=    0.000
 RMSDP=1.31D-06 MaxDP=5.51D-06 DE=-1.28D-08 OVMax= 0.00D+00

 Cycle  38  Pass 1  IDiag  1:
 E= -33.0149732668316     Delta-E=       -0.000000000364 Rises=F Damp=F
 DIIS: error= 3.99D-09 at cycle  38 NSaved=  16.
 NSaved=16 IEnMin= 9 EnMin= -33.0149732772216     IErMin=14 ErrMin= 7.79D-10
 ErrMax= 3.99D-09  0.00D+00 EMaxC= 1.00D-01 BMatC= 9.60D-17 BMatP= 5.95D-18
 IDIUse=1 WtCom= 1.00D+00 WtEn= 0.00D+00
 Large coefficients: NSaved= 16 BigCof=    0.00 CofMax=   10.00 Det=-9.23D-23
 Inversion failed.  Reducing to 15 matrices.
 Coeff-Com: -0.140D-05 0.952D-01-0.958D-01-0.202D+00 0.234D+00-0.294D+00
 Coeff-Com: -0.749D-02-0.184D+00-0.978D+00 0.181D+01-0.144D+00 0.903D+00
 Coeff-Com: -0.149D+01 0.421D+00 0.927D+00
 Coeff:     -0.140D-05 0.952D-01-0.958D-01-0.202D+00 0.234D+00-0.294D+00
 Coeff:     -0.749D-02-0.184D+00-0.978D+00 0.181D+01-0.144D+00 0.903D+00
 Coeff:     -0.149D+01 0.421D+00 0.927D+00
 Gap=     0.429 Goal=   None    Shift=    0.000
 RMSDP=5.99D-06 MaxDP=2.09D-05 DE=-3.64D-10 OVMax= 0.00D+00

 Cycle  39  Pass 1  IDiag  1:
 E= -33.0149732584060     Delta-E=        0.000000008426 Rises=F Damp=F
 DIIS: error= 6.94D-10 at cycle  39 NSaved=  16.
 NSaved=16 IEnMin= 9 EnMin= -33.0149732772216     IErMin=16 ErrMin= 6.94D-10
 ErrMax= 6.94D-10  0.00D+00 EMaxC= 1.00D-01 BMatC= 8.55D-18 BMatP= 1.16D-17
 IDIUse=1 WtCom= 1.00D+00 WtEn= 0.00D+00
 Large coefficients: NSaved= 16 BigCof=    0.00 CofMax=   10.00 Det=-1.06D-22
 Inversion failed.  Reducing to 15 matrices.
 Coeff-Com:  0.123D-04 0.155D+01-0.119D+01 0.110D+00 0.567D+00-0.263D+00
 Coeff-Com: -0.923D+00 0.202D+00 0.283D+00 0.492D+00-0.458D-01 0.744D-01
 Coeff-Com:  0.634D+00-0.253D+00-0.237D+00
 Coeff:      0.123D-04 0.155D+01-0.119D+01 0.110D+00 0.567D+00-0.263D+00
 Coeff:     -0.923D+00 0.202D+00 0.283D+00 0.492D+00-0.458D-01 0.744D-01
 Coeff:      0.634D+00-0.253D+00-0.237D+00
 Gap=     0.429 Goal=   None    Shift=    0.000
 RMSDP=2.16D-06 MaxDP=9.31D-06 DE= 8.43D-09 OVMax= 0.00D+00

 Cycle  40  Pass 1  IDiag  1:
 E= -33.0149732607197     Delta-E=       -0.000000002314 Rises=F Damp=F
 DIIS: error= 1.02D-09 at cycle  40 NSaved=  16.
 NSaved=16 IEnMin= 9 EnMin= -33.0149732772216     IErMin=15 ErrMin= 6.94D-10
 ErrMax= 1.02D-09  0.00D+00 EMaxC= 1.00D-01 BMatC= 8.31D-18 BMatP= 8.55D-18
 IDIUse=1 WtCom= 1.00D+00 WtEn= 0.00D+00
 Large coefficients: NSaved= 16 BigCof=    0.00 CofMax=   10.00 Det=-7.67D-23
 Inversion failed.  Reducing to 15 matrices.
 Coeff-Com:  0.131D-04 0.601D+00-0.103D+01-0.239D+00 0.602D-01-0.148D+01
 Coeff-Com:  0.138D+01-0.126D+01 0.152D+01 0.593D+00-0.154D+01 0.182D+01
 Coeff-Com: -0.151D+01-0.178D+00 0.225D+01
 Coeff:      0.131D-04 0.601D+00-0.103D+01-0.239D+00 0.602D-01-0.148D+01
 Coeff:      0.138D+01-0.126D+01 0.152D+01 0.593D+00-0.154D+01 0.182D+01
 Coeff:     -0.151D+01-0.178D+00 0.225D+01
 Gap=     0.429 Goal=   None    Shift=    0.000
 RMSDP=5.38D-06 MaxDP=2.31D-05 DE=-2.31D-09 OVMax= 0.00D+00

 Cycle  41  Pass 1  IDiag  1:
 E= -33.0149732675591     Delta-E=       -0.000000006839 Rises=F Damp=F
 DIIS: error= 4.00D-09 at cycle  41 NSaved=  16.
 NSaved=16 IEnMin= 9 EnMin= -33.0149732772216     IErMin=14 ErrMin= 6.94D-10
 ErrMax= 4.00D-09  0.00D+00 EMaxC= 1.00D-01 BMatC= 9.23D-17 BMatP= 8.31D-18
 IDIUse=1 WtCom= 1.00D+00 WtEn= 0.00D+00
 Large coefficients: NSaved= 16 BigCof=    0.00 CofMax=   10.00 Det=-8.12D-23
 Inversion failed.  Reducing to 15 matrices.
 Coeff-Com:  0.241D-05 0.130D+00-0.402D+00-0.488D+00-0.857D-01-0.494D+00
 Coeff-Com:  0.106D+01-0.122D+01 0.850D+00 0.506D+00-0.934D+00 0.140D+01
 Coeff-Com: -0.116D+01 0.143D+01 0.416D+00
 Coeff:      0.241D-05 0.130D+00-0.402D+00-0.488D+00-0.857D-01-0.494D+00
 Coeff:      0.106D+01-0.122D+01 0.850D+00 0.506D+00-0.934D+00 0.140D+01
 Coeff:     -0.116D+01 0.143D+01 0.416D+00
 Gap=     0.429 Goal=   None    Shift=    0.000
 RMSDP=2.60D-06 MaxDP=9.92D-06 DE=-6.84D-09 OVMax= 0.00D+00

 Cycle  42  Pass 1  IDiag  1:
 E= -33.0149732710953     Delta-E=       -0.000000003536 Rises=F Damp=F
 DIIS: error= 5.86D-09 at cycle  42 NSaved=  16.
 NSaved=16 IEnMin= 9 EnMin= -33.0149732772216     IErMin=14 ErrMin= 1.02D-09
 ErrMax= 5.86D-09  0.00D+00 EMaxC= 1.00D-01 BMatC= 2.28D-16 BMatP= 8.31D-18
 IDIUse=1 WtCom= 1.00D+00 WtEn= 0.00D+00
 Large coefficients: NSaved= 16 BigCof=    0.00 CofMax=   10.00 Det=-6.47D-24
 Inversion failed.  Reducing to 15 matrices.
 Large coefficients: NSaved= 15 BigCof=    0.00 CofMax=   10.00 Det=-7.48D-23
 Inversion failed.  Reducing to 14 matrices.
 Coeff-Com: -0.849D-05 0.136D+00-0.228D+00 0.170D-01 0.641D+00-0.208D+00
 Coeff-Com: -0.894D+00-0.146D+00 0.366D+00 0.193D+00 0.567D+00-0.339D+00
 Coeff-Com:  0.949D+00-0.535D-01
 Coeff:     -0.849D-05 0.136D+00-0.228D+00 0.170D-01 0.641D+00-0.208D+00
 Coeff:     -0.894D+00-0.146D+00 0.366D+00 0.193D+00 0.567D+00-0.339D+00
 Coeff:      0.949D+00-0.535D-01
 Gap=     0.429 Goal=   None    Shift=    0.000
 RMSDP=7.99D-06 MaxDP=3.19D-05 DE=-3.54D-09 OVMax= 0.00D+00

 Cycle  43  Pass 1  IDiag  1:
 E= -33.0149732489327     Delta-E=        0.000000022163 Rises=F Damp=F
 DIIS: error= 4.02D-09 at cycle  43 NSaved=  15.
 NSaved=15 IEnMin= 8 EnMin= -33.0149732772216     IErMin= 4 ErrMin= 3.46D-09
 ErrMax= 4.02D-09  0.00D+00 EMaxC= 1.00D-01 BMatC= 8.89D-17 BMatP= 9.23D-17
 IDIUse=1 WtCom= 1.00D+00 WtEn= 0.00D+00
 Coeff-Com:  0.152D-05 0.241D-02 0.328D+00-0.866D-01 0.210D+00 0.115D+01
 Coeff-Com: -0.109D+01 0.607D+00 0.462D+00-0.316D+00 0.256D+00-0.975D+00
 Coeff-Com:  0.735D+00-0.872D+00 0.593D+00
 Coeff:      0.152D-05 0.241D-02 0.328D+00-0.866D-01 0.210D+00 0.115D+01
 Coeff:     -0.109D+01 0.607D+00 0.462D+00-0.316D+00 0.256D+00-0.975D+00
 Coeff:      0.735D+00-0.872D+00 0.593D+00
 Gap=     0.429 Goal=   None    Shift=    0.000
 RMSDP=4.80D-06 MaxDP=1.83D-05 DE= 2.22D-08 OVMax= 0.00D+00

 Cycle  44  Pass 1  IDiag  1:
 E= -33.0149732632663     Delta-E=       -0.000000014334 Rises=F Damp=F
 DIIS: error= 1.54D-09 at cycle  44 NSaved=  16.
 NSaved=16 IEnMin= 8 EnMin= -33.0149732772216     IErMin=16 ErrMin= 1.54D-09
 ErrMax= 1.54D-09  0.00D+00 EMaxC= 1.00D-01 BMatC= 1.47D-17 BMatP= 8.89D-17
 IDIUse=1 WtCom= 1.00D+00 WtEn= 0.00D+00
 Large coefficients: NSaved= 16 BigCof=    0.00 CofMax=   10.00 Det=-2.02D-22
 Inversion failed.  Reducing to 15 matrices.
 Coeff-Com:  0.172D-05 0.560D-01 0.184D+00 0.107D+00 0.896D+00-0.100D+01
 Coeff-Com:  0.638D+00 0.430D+00-0.265D+00 0.313D+00-0.896D+00 0.685D+00
 Coeff-Com: -0.798D+00 0.529D+00 0.120D+00
 Coeff:      0.172D-05 0.560D-01 0.184D+00 0.107D+00 0.896D+00-0.100D+01
 Coeff:      0.638D+00 0.430D+00-0.265D+00 0.313D+00-0.896D+00 0.685D+00
 Coeff:     -0.798D+00 0.529D+00 0.120D+00
 Gap=     0.429 Goal=   None    Shift=    0.000
 RMSDP=8.79D-07 MaxDP=3.15D-06 DE=-1.43D-08 OVMax= 0.00D+00

 Cycle  45  Pass 1  IDiag  1:
 E= -33.0149732752717     Delta-E=       -0.000000012005 Rises=F Damp=F
 DIIS: error= 6.27D-09 at cycle  45 NSaved=  16.
 NSaved=16 IEnMin= 7 EnMin= -33.0149732772216     IErMin=15 ErrMin= 1.54D-09
 ErrMax= 6.27D-09  0.00D+00 EMaxC= 1.00D-01 BMatC= 2.55D-16 BMatP= 1.47D-17
 IDIUse=1 WtCom= 1.00D+00 WtEn= 0.00D+00
 Large coefficients: NSaved= 16 BigCof=    0.00 CofMax=   10.00 Det=-1.51D-22
 Inversion failed.  Reducing to 15 matrices.
 Coeff-Com: -0.744D-05 0.154D+00-0.385D+00 0.625D+00-0.421D+00-0.717D+00
 Coeff-Com: -0.223D+00 0.352D-01 0.385D+00 0.818D+00-0.340D+00 0.724D+00
 Coeff-Com: -0.462D+00 0.145D+00 0.661D+00
 Coeff:     -0.744D-05 0.154D+00-0.385D+00 0.625D+00-0.421D+00-0.717D+00
 Coeff:     -0.223D+00 0.352D-01 0.385D+00 0.818D+00-0.340D+00 0.724D+00
 Coeff:     -0.462D+00 0.145D+00 0.661D+00
 Gap=     0.429 Goal=   None    Shift=    0.000
 RMSDP=6.40D-06 MaxDP=2.56D-05 DE=-1.20D-08 OVMax= 0.00D+00

 Cycle  46  Pass 1  IDiag  1:
 E= -33.0149732534874     Delta-E=        0.000000021784 Rises=F Damp=F
 DIIS: error= 3.63D-09 at cycle  46 NSaved=  16.
 NSaved=16 IEnMin= 7 EnMin= -33.0149732772216     IErMin=14 ErrMin= 1.54D-09
 ErrMax= 3.63D-09  0.00D+00 EMaxC= 1.00D-01 BMatC= 8.66D-17 BMatP= 1.47D-17
 IDIUse=1 WtCom= 1.00D+00 WtEn= 0.00D+00
 Large coefficients: NSaved= 16 BigCof=    0.00 CofMax=   10.00 Det=-2.04D-22
 Inversion failed.  Reducing to 15 matrices.
 Coeff-Com:  0.144D-05 0.405D-01-0.223D+00-0.592D-01 0.560D-01-0.302D+00
 Coeff-Com:  0.785D+00-0.669D-01-0.404D+00 0.480D+00-0.318D+00 0.875D-01
 Coeff-Com: -0.718D+00 0.835D+00 0.808D+00
 Coeff:      0.144D-05 0.405D-01-0.223D+00-0.592D-01 0.560D-01-0.302D+00
 Coeff:      0.785D+00-0.669D-01-0.404D+00 0.480D+00-0.318D+00 0.875D-01
 Coeff:     -0.718D+00 0.835D+00 0.808D+00
 Gap=     0.429 Goal=   None    Shift=    0.000
 RMSDP=1.11D-06 MaxDP=5.50D-06 DE= 2.18D-08 OVMax= 0.00D+00

 Cycle  47  Pass 1  IDiag  1:
 E= -33.0149732662495     Delta-E=       -0.000000012762 Rises=F Damp=F
 DIIS: error= 1.61D-09 at cycle  47 NSaved=  16.
 NSaved=16 IEnMin= 7 EnMin= -33.0149732772216     IErMin=16 ErrMin= 1.61D-09
 ErrMax= 1.61D-09  0.00D+00 EMaxC= 1.00D-01 BMatC= 3.65D-17 BMatP= 8.66D-17
 IDIUse=1 WtCom= 1.00D+00 WtEn= 0.00D+00
 Large coefficients: NSaved= 16 BigCof=    0.00 CofMax=   10.00 Det=-2.63D-22
 Inversion failed.  Reducing to 15 matrices.
 Coeff-Com:  0.547D-05-0.595D-01 0.164D+00-0.359D+00 0.408D+00 0.718D-02
 Coeff-Com:  0.800D+00 0.591D-01-0.625D+00-0.334D+00-0.215D-01-0.949D+00
 Coeff-Com:  0.658D+00 0.875D+00 0.376D+00
 Coeff:      0.547D-05-0.595D-01 0.164D+00-0.359D+00 0.408D+00 0.718D-02
 Coeff:      0.800D+00 0.591D-01-0.625D+00-0.334D+00-0.215D-01-0.949D+00
 Coeff:      0.658D+00 0.875D+00 0.376D+00
 Gap=     0.429 Goal=   None    Shift=    0.000
 RMSDP=1.91D-07 MaxDP=9.79D-07 DE=-1.28D-08 OVMax= 0.00D+00

 Cycle  48  Pass 1  IDiag  1:
 E= -33.0149732598466     Delta-E=        0.000000006403 Rises=F Damp=F
 DIIS: error= 8.95D-10 at cycle  48 NSaved=  16.
 NSaved=16 IEnMin= 7 EnMin= -33.0149732772216     IErMin=16 ErrMin= 8.95D-10
 ErrMax= 8.95D-10  0.00D+00 EMaxC= 1.00D-01 BMatC= 4.68D-18 BMatP= 3.65D-17
 IDIUse=1 WtCom= 1.00D+00 WtEn= 0.00D+00
 Large coefficients: NSaved= 16 BigCof=    0.00 CofMax=   10.00 Det=-4.04D-23
 Inversion failed.  Reducing to 15 matrices.
 Coeff-Com: -0.527D-06-0.657D-01 0.340D+00-0.504D+00 0.985D+00-0.489D+00
 Coeff-Com:  0.106D+00 0.696D+00-0.736D+00-0.258D+00 0.342D+00-0.298D+00
 Coeff-Com: -0.179D+00 0.432D+00 0.628D+00
 Coeff:     -0.527D-06-0.657D-01 0.340D+00-0.504D+00 0.985D+00-0.489D+00
 Coeff:      0.106D+00 0.696D+00-0.736D+00-0.258D+00 0.342D+00-0.298D+00
 Coeff:     -0.179D+00 0.432D+00 0.628D+00
 Gap=     0.429 Goal=   None    Shift=    0.000
 RMSDP=1.92D-06 MaxDP=7.94D-06 DE= 6.40D-09 OVMax= 0.00D+00

 Cycle  49  Pass 1  IDiag  1:
 E= -33.0149732640812     Delta-E=       -0.000000004235 Rises=F Damp=F
 DIIS: error= 1.27D-09 at cycle  49 NSaved=  16.
 NSaved=16 IEnMin= 7 EnMin= -33.0149732772216     IErMin=15 ErrMin= 8.95D-10
 ErrMax= 1.27D-09  0.00D+00 EMaxC= 1.00D-01 BMatC= 2.67D-17 BMatP= 4.68D-18
 IDIUse=1 WtCom= 1.00D+00 WtEn= 0.00D+00
 Large coefficients: NSaved= 16 BigCof=    0.00 CofMax=   10.00 Det=-3.24D-23
 Inversion failed.  Reducing to 15 matrices.
 Coeff-Com: -0.443D-05 0.193D-01 0.231D+00-0.287D+00 0.887D+00-0.944D+00
 Coeff-Com:  0.402D+00 0.618D+00-0.593D+00-0.201D-01 0.296D+00 0.236D+00
 Coeff-Com: -0.431D+00 0.106D+01-0.474D+00
 Coeff:     -0.443D-05 0.193D-01 0.231D+00-0.287D+00 0.887D+00-0.944D+00
 Coeff:      0.402D+00 0.618D+00-0.593D+00-0.201D-01 0.296D+00 0.236D+00
 Coeff:     -0.431D+00 0.106D+01-0.474D+00
 Gap=     0.429 Goal=   None    Shift=    0.000
 RMSDP=1.57D-06 MaxDP=7.10D-06 DE=-4.23D-09 OVMax= 0.00D+00

 Cycle  50  Pass 1  IDiag  1:
 E= -33.0149732676901     Delta-E=       -0.000000003609 Rises=F Damp=F
 DIIS: error= 2.54D-09 at cycle  50 NSaved=  16.
 NSaved=16 IEnMin= 7 EnMin= -33.0149732772216     IErMin=14 ErrMin= 8.95D-10
 ErrMax= 2.54D-09  0.00D+00 EMaxC= 1.00D-01 BMatC= 4.76D-17 BMatP= 4.68D-18
 IDIUse=1 WtCom= 1.00D+00 WtEn= 0.00D+00
 Large coefficients: NSaved= 16 BigCof=    0.00 CofMax=   10.00 Det=-8.66D-23
 Inversion failed.  Reducing to 15 matrices.
 Coeff-Com: -0.186D-05 0.155D+00-0.689D-02 0.790D+00-0.387D+00-0.502D+00
 Coeff-Com: -0.433D+00-0.571D-01 0.813D+00-0.437D-01 0.537D+00-0.114D+01
 Coeff-Com:  0.797D+00-0.255D+00 0.731D+00
 Coeff:     -0.186D-05 0.155D+00-0.689D-02 0.790D+00-0.387D+00-0.502D+00
 Coeff:     -0.433D+00-0.571D-01 0.813D+00-0.437D-01 0.537D+00-0.114D+01
 Coeff:      0.797D+00-0.255D+00 0.731D+00
 Gap=     0.429 Goal=   None    Shift=    0.000
 RMSDP=7.67D-06 MaxDP=3.25D-05 DE=-3.61D-09 OVMax= 0.00D+00

 Cycle  51  Pass 1  IDiag  1:
 E= -33.0149732635865     Delta-E=        0.000000004104 Rises=F Damp=F
 DIIS: error= 1.17D-09 at cycle  51 NSaved=  16.
 NSaved=16 IEnMin= 7 EnMin= -33.0149732772216     IErMin=16 ErrMin= 1.17D-09
 ErrMax= 1.17D-09  0.00D+00 EMaxC= 1.00D-01 BMatC= 1.69D-17 BMatP= 2.67D-17
 IDIUse=1 WtCom= 1.00D+00 WtEn= 0.00D+00
 Large coefficients: NSaved= 16 BigCof=    0.00 CofMax=   10.00 Det=-1.34D-23
 Inversion failed.  Reducing to 15 matrices.
 Coeff-Com: -0.279D-05 0.164D+00-0.375D-02 0.718D+00-0.350D+00-0.470D+00
 Coeff-Com: -0.486D+00-0.349D-01 0.751D+00-0.104D-01 0.510D+00-0.953D+00
 Coeff-Com:  0.700D+00 0.598D+00-0.132D+00
 Coeff:     -0.279D-05 0.164D+00-0.375D-02 0.718D+00-0.350D+00-0.470D+00
 Coeff:     -0.486D+00-0.349D-01 0.751D+00-0.104D-01 0.510D+00-0.953D+00
 Coeff:      0.700D+00 0.598D+00-0.132D+00
 Gap=     0.429 Goal=   None    Shift=    0.000
 RMSDP=1.20D-06 MaxDP=4.76D-06 DE= 4.10D-09 OVMax= 0.00D+00

 Cycle  52  Pass 1  IDiag  1:
 E= -33.0149732593810     Delta-E=        0.000000004206 Rises=F Damp=F
 DIIS: error= 1.32D-09 at cycle  52 NSaved=  16.
 NSaved=16 IEnMin= 7 EnMin= -33.0149732772216     IErMin=15 ErrMin= 1.17D-09
 ErrMax= 1.32D-09  0.00D+00 EMaxC= 1.00D-01 BMatC= 9.68D-18 BMatP= 1.69D-17
 IDIUse=1 WtCom= 1.00D+00 WtEn= 0.00D+00
 Large coefficients: NSaved= 16 BigCof=    0.00 CofMax=   10.00 Det=-3.95D-23
 Inversion failed.  Reducing to 15 matrices.
 Coeff-Com: -0.204D-05 0.148D+00 0.749D-01 0.651D+00-0.288D+00-0.483D+00
 Coeff-Com: -0.517D+00-0.350D-02 0.703D+00 0.484D+00-0.106D+01 0.782D+00
 Coeff-Com:  0.649D+00-0.866D-01-0.509D-01
 Coeff:     -0.204D-05 0.148D+00 0.749D-01 0.651D+00-0.288D+00-0.483D+00
 Coeff:     -0.517D+00-0.350D-02 0.703D+00 0.484D+00-0.106D+01 0.782D+00
 Coeff:      0.649D+00-0.866D-01-0.509D-01
 Gap=     0.429 Goal=   None    Shift=    0.000
 RMSDP=6.66D-07 MaxDP=2.64D-06 DE= 4.21D-09 OVMax= 0.00D+00

 Cycle  53  Pass 1  IDiag  1:
 E= -33.0149732599194     Delta-E=       -0.000000000538 Rises=F Damp=F
 DIIS: error= 1.45D-09 at cycle  53 NSaved=  16.
 NSaved=16 IEnMin= 7 EnMin= -33.0149732772216     IErMin=14 ErrMin= 1.17D-09
 ErrMax= 1.45D-09  0.00D+00 EMaxC= 1.00D-01 BMatC= 2.37D-17 BMatP= 9.68D-18
 IDIUse=1 WtCom= 1.00D+00 WtEn= 0.00D+00
 Large coefficients: NSaved= 16 BigCof=    0.00 CofMax=   10.00 Det=-1.70D-23
 Inversion failed.  Reducing to 15 matrices.
 Large coefficients: NSaved= 15 BigCof=    0.00 CofMax=   10.00 Det=-1.87D-23
 Inversion failed.  Reducing to 14 matrices.
 Coeff-Com: -0.102D-05 0.341D-01 0.316D-01 0.447D+00-0.542D+00-0.375D+00
 Coeff-Com:  0.256D+00 0.220D+00 0.517D+00-0.779D+00 0.455D+00 0.554D+00
 Coeff-Com: -0.905D-01 0.272D+00
 Coeff:     -0.102D-05 0.341D-01 0.316D-01 0.447D+00-0.542D+00-0.375D+00
 Coeff:      0.256D+00 0.220D+00 0.517D+00-0.779D+00 0.455D+00 0.554D+00
 Coeff:     -0.905D-01 0.272D+00
 Gap=     0.429 Goal=   None    Shift=    0.000
 RMSDP=3.10D-06 MaxDP=1.28D-05 DE=-5.38D-10 OVMax= 0.00D+00

 Cycle  54  Pass 1  IDiag  1:
 E= -33.0149732675737     Delta-E=       -0.000000007654 Rises=F Damp=F
 DIIS: error= 1.70D-09 at cycle  54 NSaved=  15.
 NSaved=15 IEnMin= 6 EnMin= -33.0149732772216     IErMin=13 ErrMin= 1.32D-09
 ErrMax= 1.70D-09  0.00D+00 EMaxC= 1.00D-01 BMatC= 2.91D-17 BMatP= 9.68D-18
 IDIUse=1 WtCom= 1.00D+00 WtEn= 0.00D+00
 Coeff-Com: -0.200D-05 0.506D-01 0.982D-02 0.467D+00-0.572D+00-0.371D+00
 Coeff-Com:  0.260D+00 0.268D+00 0.564D+00-0.712D+00 0.381D+00 0.500D+00
 Coeff-Com: -0.117D+00 0.343D+00-0.715D-01
 Coeff:     -0.200D-05 0.506D-01 0.982D-02 0.467D+00-0.572D+00-0.371D+00
 Coeff:      0.260D+00 0.268D+00 0.564D+00-0.712D+00 0.381D+00 0.500D+00
 Coeff:     -0.117D+00 0.343D+00-0.715D-01
 Gap=     0.429 Goal=   None    Shift=    0.000
 RMSDP=7.37D-07 MaxDP=2.89D-06 DE=-7.65D-09 OVMax= 0.00D+00

 Cycle  55  Pass 1  IDiag  1:
 E= -33.0149732511009     Delta-E=        0.000000016473 Rises=F Damp=F
 DIIS: error= 3.50D-09 at cycle  55 NSaved=  16.
 NSaved=16 IEnMin= 6 EnMin= -33.0149732772216     IErMin=13 ErrMin= 1.32D-09
 ErrMax= 3.50D-09  0.00D+00 EMaxC= 1.00D-01 BMatC= 7.00D-17 BMatP= 9.68D-18
 IDIUse=1 WtCom= 1.00D+00 WtEn= 0.00D+00
 Large coefficients: NSaved= 16 BigCof=    0.00 CofMax=   10.00 Det=-2.86D-23
 Inversion failed.  Reducing to 15 matrices.
 Coeff-Com: -0.250D-05 0.348D-01-0.377D-01 0.513D+00-0.599D+00-0.365D+00
 Coeff-Com:  0.312D+00 0.259D+00 0.602D+00-0.700D+00 0.339D+00 0.445D+00
 Coeff-Com:  0.387D+00-0.860D-01-0.104D+00
 Coeff:     -0.250D-05 0.348D-01-0.377D-01 0.513D+00-0.599D+00-0.365D+00
 Coeff:      0.312D+00 0.259D+00 0.602D+00-0.700D+00 0.339D+00 0.445D+00
 Coeff:      0.387D+00-0.860D-01-0.104D+00
 Gap=     0.429 Goal=   None    Shift=    0.000
 RMSDP=1.14D-07 MaxDP=5.55D-07 DE= 1.65D-08 OVMax= 0.00D+00

 Cycle  56  Pass 1  IDiag  1:
 E= -33.0149732693054     Delta-E=       -0.000000018204 Rises=F Damp=F
 DIIS: error= 2.38D-09 at cycle  56 NSaved=  16.
 NSaved=16 IEnMin= 6 EnMin= -33.0149732772216     IErMin=13 ErrMin= 1.45D-09
 ErrMax= 2.38D-09  0.00D+00 EMaxC= 1.00D-01 BMatC= 3.94D-17 BMatP= 2.37D-17
 IDIUse=1 WtCom= 1.00D+00 WtEn= 0.00D+00
 Large coefficients: NSaved= 16 BigCof=    0.00 CofMax=   10.00 Det=-1.67D-22
 Inversion failed.  Reducing to 15 matrices.
 Coeff-Com:  0.197D-05-0.106D-01 0.126D+00 0.393D+00-0.472D+00-0.294D+00
 Coeff-Com:  0.204D+00 0.263D-01 0.371D+00-0.968D+00 0.672D+00 0.731D+00
 Coeff-Com:  0.262D+00 0.740D-01-0.113D+00
 Coeff:      0.197D-05-0.106D-01 0.126D+00 0.393D+00-0.472D+00-0.294D+00
 Coeff:      0.204D+00 0.263D-01 0.371D+00-0.968D+00 0.672D+00 0.731D+00
 Coeff:      0.262D+00 0.740D-01-0.113D+00
 Gap=     0.429 Goal=   None    Shift=    0.000
 RMSDP=2.21D-06 MaxDP=8.28D-06 DE=-1.82D-08 OVMax= 0.00D+00

 Cycle  57  Pass 1  IDiag  1:
 E= -33.0149732466480     Delta-E=        0.000000022657 Rises=F Damp=F
 DIIS: error= 6.41D-09 at cycle  57 NSaved=  16.
 NSaved=16 IEnMin= 6 EnMin= -33.0149732772216     IErMin=13 ErrMin= 1.70D-09
 ErrMax= 6.41D-09  0.00D+00 EMaxC= 1.00D-01 BMatC= 2.42D-16 BMatP= 2.91D-17
 IDIUse=1 WtCom= 1.00D+00 WtEn= 0.00D+00
 Large coefficients: NSaved= 16 BigCof=    0.00 CofMax=   10.00 Det=-5.02D-23
 Inversion failed.  Reducing to 15 matrices.
 Coeff-Com:  0.476D-06 0.193D-01 0.106D+00 0.569D+00-0.649D+00-0.223D+00
 Coeff-Com:  0.243D+00 0.583D-01 0.340D+00-0.729D+00 0.512D+00 0.600D+00
 Coeff-Com:  0.160D+00-0.136D+00 0.130D+00
 Coeff:      0.476D-06 0.193D-01 0.106D+00 0.569D+00-0.649D+00-0.223D+00
 Coeff:      0.243D+00 0.583D-01 0.340D+00-0.729D+00 0.512D+00 0.600D+00
 Coeff:      0.160D+00-0.136D+00 0.130D+00
 Gap=     0.429 Goal=   None    Shift=    0.000
 RMSDP=1.87D-06 MaxDP=7.30D-06 DE= 2.27D-08 OVMax= 0.00D+00

 Cycle  58  Pass 1  IDiag  1:
 E= -33.0149732549863     Delta-E=       -0.000000008338 Rises=F Damp=F
 DIIS: error= 2.75D-09 at cycle  58 NSaved=  16.
 NSaved=16 IEnMin= 6 EnMin= -33.0149732772216     IErMin=13 ErrMin= 1.70D-09
 ErrMax= 2.75D-09  0.00D+00 EMaxC= 1.00D-01 BMatC= 4.83D-17 BMatP= 2.91D-17
 IDIUse=1 WtCom= 1.00D+00 WtEn= 0.00D+00
 Large coefficients: NSaved= 16 BigCof=    0.00 CofMax=   10.00 Det=-8.72D-23
 Inversion failed.  Reducing to 15 matrices.
 Coeff-Com:  0.270D-01-0.754D-01 0.396D+00-0.498D+00-0.460D+00-0.413D-02
 Coeff-Com:  0.977D-01 0.264D+00-0.601D+00 0.713D+00 0.738D+00 0.530D+00
 Coeff-Com:  0.204D+00 0.323D+00-0.653D+00
 Coeff:      0.270D-01-0.754D-01 0.396D+00-0.498D+00-0.460D+00-0.413D-02
 Coeff:      0.977D-01 0.264D+00-0.601D+00 0.713D+00 0.738D+00 0.530D+00
 Coeff:      0.204D+00 0.323D+00-0.653D+00
 Gap=     0.429 Goal=   None    Shift=    0.000
 RMSDP=5.17D-06 MaxDP=2.05D-05 DE=-8.34D-09 OVMax= 0.00D+00

 Cycle  59  Pass 1  IDiag  1:
 E= -33.0149732701930     Delta-E=       -0.000000015207 Rises=F Damp=F
 DIIS: error= 1.69D-09 at cycle  59 NSaved=  16.
 NSaved=16 IEnMin= 5 EnMin= -33.0149732772216     IErMin=16 ErrMin= 1.69D-09
 ErrMax= 1.69D-09  0.00D+00 EMaxC= 1.00D-01 BMatC= 4.89D-17 BMatP= 2.91D-17
 IDIUse=1 WtCom= 1.00D+00 WtEn= 0.00D+00
 Large coefficients: NSaved= 16 BigCof=    0.00 CofMax=   10.00 Det=-5.18D-23
 Inversion failed.  Reducing to 15 matrices.
 Coeff-Com:  0.667D-01 0.219D+00-0.239D+00 0.191D+00-0.902D+00 0.276D+00
 Coeff-Com:  0.178D+00 0.431D+00-0.166D+01 0.992D+00 0.911D+00 0.583D-01
 Coeff-Com:  0.277D+00-0.522D+00 0.722D+00
 Coeff:      0.667D-01 0.219D+00-0.239D+00 0.191D+00-0.902D+00 0.276D+00
 Coeff:      0.178D+00 0.431D+00-0.166D+01 0.992D+00 0.911D+00 0.583D-01
 Coeff:      0.277D+00-0.522D+00 0.722D+00
 Gap=     0.429 Goal=   None    Shift=    0.000
 RMSDP=8.48D-06 MaxDP=3.40D-05 DE=-1.52D-08 OVMax= 0.00D+00

 Cycle  60  Pass 1  IDiag  1:
 E= -33.0149732570963     Delta-E=        0.000000013097 Rises=F Damp=F
 DIIS: error= 4.27D-09 at cycle  60 NSaved=  16.
 NSaved=16 IEnMin= 5 EnMin= -33.0149732772216     IErMin=15 ErrMin= 1.69D-09
 ErrMax= 4.27D-09  0.00D+00 EMaxC= 1.00D-01 BMatC= 1.25D-16 BMatP= 2.91D-17
 IDIUse=1 WtCom= 1.00D+00 WtEn= 0.00D+00
 Large coefficients: NSaved= 16 BigCof=    0.00 CofMax=   10.00 Det=-2.52D-24
 Inversion failed.  Reducing to 15 matrices.
 Coeff-Com:  0.929D-01 0.364D+00-0.140D+00 0.223D-01-0.705D+00 0.195D+00
 Coeff-Com:  0.198D+00 0.204D+00-0.147D+01 0.924D+00 0.907D+00 0.121D+00
 Coeff-Com: -0.115D-01 0.529D+00-0.231D+00
 Coeff:      0.929D-01 0.364D+00-0.140D+00 0.223D-01-0.705D+00 0.195D+00
 Coeff:      0.198D+00 0.204D+00-0.147D+01 0.924D+00 0.907D+00 0.121D+00
 Coeff:     -0.115D-01 0.529D+00-0.231D+00
 Gap=     0.429 Goal=   None    Shift=    0.000
 RMSDP=5.08D-06 MaxDP=2.05D-05 DE= 1.31D-08 OVMax= 0.00D+00

 Cycle  61  Pass 1  IDiag  1:
 E= -33.0149732522360     Delta-E=        0.000000004860 Rises=F Damp=F
 DIIS: error= 5.81D-09 at cycle  61 NSaved=  16.
 NSaved=16 IEnMin= 5 EnMin= -33.0149732772216     IErMin=14 ErrMin= 1.69D-09
 ErrMax= 5.81D-09  0.00D+00 EMaxC= 1.00D-01 BMatC= 1.96D-16 BMatP= 2.91D-17
 IDIUse=1 WtCom= 1.00D+00 WtEn= 0.00D+00
 Large coefficients: NSaved= 16 BigCof=    0.00 CofMax=   10.00 Det=-1.77D-22
 Inversion failed.  Reducing to 15 matrices.
 Coeff-Com:  0.958D-01 0.250D+00 0.713D-02-0.222D+00-0.418D+00 0.544D-01
 Coeff-Com:  0.163D+00-0.104D+01 0.103D+01 0.765D+00 0.470D+00-0.175D+00
 Coeff-Com:  0.608D-01-0.393D+00 0.357D+00
 Coeff:      0.958D-01 0.250D+00 0.713D-02-0.222D+00-0.418D+00 0.544D-01
 Coeff:      0.163D+00-0.104D+01 0.103D+01 0.765D+00 0.470D+00-0.175D+00
 Coeff:      0.608D-01-0.393D+00 0.357D+00
 Gap=     0.429 Goal=   None    Shift=    0.000
 RMSDP=3.04D-06 MaxDP=1.25D-05 DE= 4.86D-09 OVMax= 0.00D+00

 Cycle  62  Pass 1  IDiag  1:
 E= -33.0149732581877     Delta-E=       -0.000000005952 Rises=F Damp=F
 DIIS: error= 2.74D-09 at cycle  62 NSaved=  16.
 NSaved=16 IEnMin= 5 EnMin= -33.0149732772216     IErMin=13 ErrMin= 1.69D-09
 ErrMax= 2.74D-09  0.00D+00 EMaxC= 1.00D-01 BMatC= 5.46D-17 BMatP= 2.91D-17
 IDIUse=1 WtCom= 1.00D+00 WtEn= 0.00D+00
 Large coefficients: NSaved= 16 BigCof=    0.00 CofMax=   10.00 Det=-8.06D-23
 Inversion failed.  Reducing to 15 matrices.
 Coeff-Com:  0.151D+00 0.487D+00-0.383D+00-0.115D+00-0.423D+00 0.412D+00
 Coeff-Com:  0.887D-01-0.208D+01 0.151D+01 0.952D+00 0.336D-01 0.544D+00
 Coeff-Com:  0.415D+00 0.691D+00-0.129D+01
 Coeff:      0.151D+00 0.487D+00-0.383D+00-0.115D+00-0.423D+00 0.412D+00
 Coeff:      0.887D-01-0.208D+01 0.151D+01 0.952D+00 0.336D-01 0.544D+00
 Coeff:      0.415D+00 0.691D+00-0.129D+01
 Gap=     0.429 Goal=   None    Shift=    0.000
 RMSDP=1.06D-05 MaxDP=4.14D-05 DE=-5.95D-09 OVMax= 0.00D+00

 Cycle  63  Pass 1  IDiag  1:
 E= -33.0149732751407     Delta-E=       -0.000000016953 Rises=F Damp=F
 DIIS: error= 2.00D-09 at cycle  63 NSaved=  16.
 NSaved=16 IEnMin= 5 EnMin= -33.0149732772216     IErMin=13 ErrMin= 1.69D-09
 ErrMax= 2.00D-09  0.00D+00 EMaxC= 1.00D-01 BMatC= 5.50D-17 BMatP= 2.91D-17
 IDIUse=1 WtCom= 1.00D+00 WtEn= 0.00D+00
 Large coefficients: NSaved= 16 BigCof=    0.00 CofMax=   10.00 Det=-9.95D-24
 Inversion failed.  Reducing to 15 matrices.
 Coeff-Com:  0.168D+00 0.301D+00-0.227D+00-0.111D+00-0.511D+00-0.178D+00
 Coeff-Com:  0.377D+00-0.148D+01 0.118D+01 0.105D+01 0.703D+00 0.130D+00
 Coeff-Com:  0.346D+00-0.171D+00-0.591D+00
 Coeff:      0.168D+00 0.301D+00-0.227D+00-0.111D+00-0.511D+00-0.178D+00
 Coeff:      0.377D+00-0.148D+01 0.118D+01 0.105D+01 0.703D+00 0.130D+00
 Coeff:      0.346D+00-0.171D+00-0.591D+00
 Gap=     0.429 Goal=   None    Shift=    0.000
 RMSDP=1.26D-05 MaxDP=4.89D-05 DE=-1.70D-08 OVMax= 0.00D+00

 Cycle  64  Pass 1  IDiag  1:
 E= -33.0149732658420     Delta-E=        0.000000009299 Rises=F Damp=F
 DIIS: error= 9.95D-10 at cycle  64 NSaved=  16.
 NSaved=16 IEnMin= 5 EnMin= -33.0149732772216     IErMin=16 ErrMin= 9.95D-10
 ErrMax= 9.95D-10  0.00D+00 EMaxC= 1.00D-01 BMatC= 1.69D-17 BMatP= 2.91D-17
 IDIUse=1 WtCom= 1.00D+00 WtEn= 0.00D+00
 Large coefficients: NSaved= 16 BigCof=    0.00 CofMax=   10.00 Det=-8.41D-23
 Inversion failed.  Reducing to 15 matrices.
 Large coefficients: NSaved= 15 BigCof=    0.00 CofMax=   10.00 Det=-8.00D-23
 Inversion failed.  Reducing to 14 matrices.
 Coeff-Com:  0.427D+00 0.801D+00 0.368D+00-0.107D+01-0.107D+01 0.881D+00
 Coeff-Com:  0.901D+00-0.206D+01 0.116D+01 0.128D+01 0.677D-01 0.119D+01
 Coeff-Com:  0.776D-01-0.195D+01
 Coeff:      0.427D+00 0.801D+00 0.368D+00-0.107D+01-0.107D+01 0.881D+00
 Coeff:      0.901D+00-0.206D+01 0.116D+01 0.128D+01 0.677D-01 0.119D+01
 Coeff:      0.776D-01-0.195D+01
 Gap=     0.429 Goal=   None    Shift=    0.000
 RMSDP=1.09D-05 MaxDP=4.23D-05 DE= 9.30D-09 OVMax= 0.00D+00

 Cycle  65  Pass 1  IDiag  1:
 E= -33.0149732670789     Delta-E=       -0.000000001237 Rises=F Damp=F
 DIIS: error= 1.23D-09 at cycle  65 NSaved=  15.
 NSaved=15 IEnMin= 5 EnMin= -33.0149732772216     IErMin=14 ErrMin= 9.95D-10
 ErrMax= 1.23D-09  0.00D+00 EMaxC= 1.00D-01 BMatC= 1.87D-17 BMatP= 1.69D-17
 IDIUse=1 WtCom= 1.00D+00 WtEn= 0.00D+00
 Large coefficients: NSaved= 15 BigCof=    0.00 CofMax=   10.00 Det=-4.57D-23
 Inversion failed.  Reducing to 14 matrices.
 Large coefficients: NSaved= 14 BigCof=    0.00 CofMax=   10.00 Det=-6.70D-23
 Inversion failed.  Reducing to 13 matrices.
 Large coefficients: NSaved= 13 BigCof=    0.00 CofMax=   10.00 Det=-7.00D-23
 Inversion failed.  Reducing to 12 matrices.
 Large coefficients: NSaved= 12 BigCof=    0.00 CofMax=   10.00 Det=-7.59D-23
 Inversion failed.  Reducing to 11 matrices.
 Coeff-Com: -0.892D-02-0.123D+01 0.106D+01 0.471D+00-0.813D+00-0.402D+00
 Coeff-Com: -0.198D+01 0.181D+01-0.111D+01 0.292D+01 0.289D+00
 Coeff:     -0.892D-02-0.123D+01 0.106D+01 0.471D+00-0.813D+00-0.402D+00
 Coeff:     -0.198D+01 0.181D+01-0.111D+01 0.292D+01 0.289D+00
 Gap=     0.429 Goal=   None    Shift=    0.000
 RMSDP=1.64D-05 MaxDP=5.97D-05 DE=-1.24D-09 OVMax= 0.00D+00

 Cycle  66  Pass 1  IDiag  1:
 E= -33.0149732713135     Delta-E=       -0.000000004235 Rises=F Damp=F
 DIIS: error= 3.91D-09 at cycle  66 NSaved=  12.
 NSaved=12 IEnMin= 4 EnMin= -33.0149732772216     IErMin=10 ErrMin= 9.95D-10
 ErrMax= 3.91D-09  0.00D+00 EMaxC= 1.00D-01 BMatC= 9.25D-17 BMatP= 1.69D-17
 IDIUse=1 WtCom= 1.00D+00 WtEn= 0.00D+00
 Coeff-Com:  0.155D+00-0.736D+00 0.248D+00-0.211D+00-0.401D+00 0.272D-01
 Coeff-Com: -0.177D+01 0.190D+01-0.352D+00 0.126D+01 0.144D+00 0.742D+00
 Coeff:      0.155D+00-0.736D+00 0.248D+00-0.211D+00-0.401D+00 0.272D-01
 Coeff:     -0.177D+01 0.190D+01-0.352D+00 0.126D+01 0.144D+00 0.742D+00
 Gap=     0.429 Goal=   None    Shift=    0.000
 RMSDP=1.42D-05 MaxDP=5.68D-05 DE=-4.23D-09 OVMax= 0.00D+00

 Cycle  67  Pass 1  IDiag  1:
 E= -33.0149732576493     Delta-E=        0.000000013664 Rises=F Damp=F
 DIIS: error= 3.98D-09 at cycle  67 NSaved=  13.
 NSaved=13 IEnMin= 4 EnMin= -33.0149732772216     IErMin=10 ErrMin= 9.95D-10
 ErrMax= 3.98D-09  0.00D+00 EMaxC= 1.00D-01 BMatC= 9.73D-17 BMatP= 1.69D-17
 IDIUse=1 WtCom= 1.00D+00 WtEn= 0.00D+00
 Coeff-Com:  0.339D+00-0.268D+00-0.427D+00-0.145D+00 0.464D+00 0.154D+00
 Coeff-Com: -0.100D+01 0.123D+01 0.285D+00-0.129D+00-0.508D+00 0.308D+00
 Coeff-Com:  0.705D+00
 Coeff:      0.339D+00-0.268D+00-0.427D+00-0.145D+00 0.464D+00 0.154D+00
 Coeff:     -0.100D+01 0.123D+01 0.285D+00-0.129D+00-0.508D+00 0.308D+00
 Coeff:      0.705D+00
 Gap=     0.429 Goal=   None    Shift=    0.000
 RMSDP=1.62D-06 MaxDP=6.17D-06 DE= 1.37D-08 OVMax= 0.00D+00

 Cycle  68  Pass 1  IDiag  1:
 E= -33.0149732622768     Delta-E=       -0.000000004628 Rises=F Damp=F
 DIIS: error= 2.51D-09 at cycle  68 NSaved=  14.
 NSaved=14 IEnMin= 4 EnMin= -33.0149732772216     IErMin=10 ErrMin= 9.95D-10
 ErrMax= 2.51D-09  0.00D+00 EMaxC= 1.00D-01 BMatC= 4.12D-17 BMatP= 1.69D-17
 IDIUse=1 WtCom= 1.00D+00 WtEn= 0.00D+00
 Coeff-Com:  0.396D+00-0.116D+00-0.723D+00-0.255D-01 0.481D+00 0.791D-01
 Coeff-Com: -0.479D+00 0.947D+00 0.259D+00-0.308D+00-0.549D+00 0.297D+00
 Coeff-Com:  0.938D+00-0.195D+00
 Coeff:      0.396D+00-0.116D+00-0.723D+00-0.255D-01 0.481D+00 0.791D-01
 Coeff:     -0.479D+00 0.947D+00 0.259D+00-0.308D+00-0.549D+00 0.297D+00
 Coeff:      0.938D+00-0.195D+00
 Gap=     0.429 Goal=   None    Shift=    0.000
 RMSDP=1.78D-06 MaxDP=7.64D-06 DE=-4.63D-09 OVMax= 0.00D+00

 Cycle  69  Pass 1  IDiag  1:
 E= -33.0149732548117     Delta-E=        0.000000007465 Rises=F Damp=F
 DIIS: error= 4.72D-09 at cycle  69 NSaved=  15.
 NSaved=15 IEnMin= 4 EnMin= -33.0149732772216     IErMin=10 ErrMin= 9.95D-10
 ErrMax= 4.72D-09  0.00D+00 EMaxC= 1.00D-01 BMatC= 1.34D-16 BMatP= 1.69D-17
 IDIUse=1 WtCom= 1.00D+00 WtEn= 0.00D+00
 Coeff-Com:  0.292D+00 0.438D+00-0.600D+00-0.215D+00 0.372D+00 0.354D+00
 Coeff-Com: -0.111D+01 0.112D+01-0.199D+00 0.423D+00-0.771D+00 0.265D+00
 Coeff-Com:  0.124D+00-0.345D+00 0.854D+00
 Coeff:      0.292D+00 0.438D+00-0.600D+00-0.215D+00 0.372D+00 0.354D+00
 Coeff:     -0.111D+01 0.112D+01-0.199D+00 0.423D+00-0.771D+00 0.265D+00
 Coeff:      0.124D+00-0.345D+00 0.854D+00
 Gap=     0.429 Goal=   None    Shift=    0.000
 RMSDP=1.04D-05 MaxDP=4.07D-05 DE= 7.47D-09 OVMax= 0.00D+00

 Cycle  70  Pass 1  IDiag  1:
 E= -33.0149732640085     Delta-E=       -0.000000009197 Rises=F Damp=F
 DIIS: error= 7.22D-10 at cycle  70 NSaved=  16.
 NSaved=16 IEnMin= 4 EnMin= -33.0149732772216     IErMin=16 ErrMin= 7.22D-10
 ErrMax= 7.22D-10  0.00D+00 EMaxC= 1.00D-01 BMatC= 4.69D-18 BMatP= 1.69D-17
 IDIUse=1 WtCom= 1.00D+00 WtEn= 0.00D+00
 Large coefficients: NSaved= 16 BigCof=    0.00 CofMax=   10.00 Det=-2.49D-22
 Inversion failed.  Reducing to 15 matrices.
 Coeff-Com:  0.132D+00 0.589D+00-0.813D-01-0.164D+00 0.364D+00 0.106D-01
 Coeff-Com: -0.129D+01 0.894D+00 0.197D-01 0.410D+00-0.508D+00-0.258D+00
 Coeff-Com: -0.398D+00 0.656D+00 0.627D+00
 Coeff:      0.132D+00 0.589D+00-0.813D-01-0.164D+00 0.364D+00 0.106D-01
 Coeff:     -0.129D+01 0.894D+00 0.197D-01 0.410D+00-0.508D+00-0.258D+00
 Coeff:     -0.398D+00 0.656D+00 0.627D+00
 Gap=     0.429 Goal=   None    Shift=    0.000
 RMSDP=2.50D-07 MaxDP=1.04D-06 DE=-9.20D-09 OVMax= 0.00D+00

 Cycle  71  Pass 1  IDiag  1:
 E= -33.0149732607052     Delta-E=        0.000000003303 Rises=F Damp=F
 DIIS: error= 5.73D-10 at cycle  71 NSaved=  16.
 NSaved=16 IEnMin= 4 EnMin= -33.0149732772216     IErMin=16 ErrMin= 5.73D-10
 ErrMax= 5.73D-10  0.00D+00 EMaxC= 1.00D-01 BMatC= 2.01D-18 BMatP= 4.69D-18
 IDIUse=1 WtCom= 1.00D+00 WtEn= 0.00D+00
 Large coefficients: NSaved= 16 BigCof=    0.00 CofMax=   10.00 Det=-2.03D-23
 Inversion failed.  Reducing to 15 matrices.
 Coeff-Com:  0.104D+00-0.631D+00-0.651D+00-0.663D-01 0.749D+00-0.270D+00
 Coeff-Com: -0.711D+00 0.121D+01-0.313D-01 0.637D-01-0.190D+00 0.575D+00
 Coeff-Com: -0.832D+00-0.560D+00 0.225D+01
 Coeff:      0.104D+00-0.631D+00-0.651D+00-0.663D-01 0.749D+00-0.270D+00
 Coeff:     -0.711D+00 0.121D+01-0.313D-01 0.637D-01-0.190D+00 0.575D+00
 Coeff:     -0.832D+00-0.560D+00 0.225D+01
 Gap=     0.429 Goal=   None    Shift=    0.000
 RMSDP=1.70D-06 MaxDP=6.62D-06 DE= 3.30D-09 OVMax= 0.00D+00

 Cycle  72  Pass 1  IDiag  1:
 E= -33.0149732481178     Delta-E=        0.000000012587 Rises=F Damp=F
 DIIS: error= 5.62D-09 at cycle  72 NSaved=  16.
 NSaved=16 IEnMin= 4 EnMin= -33.0149732772216     IErMin=15 ErrMin= 5.73D-10
 ErrMax= 5.62D-09  0.00D+00 EMaxC= 1.00D-01 BMatC= 1.94D-16 BMatP= 2.01D-18
 IDIUse=1 WtCom= 1.00D+00 WtEn= 0.00D+00
 Large coefficients: NSaved= 16 BigCof=    0.00 CofMax=   10.00 Det=-4.85D-24
 Inversion failed.  Reducing to 15 matrices.
 Large coefficients: NSaved= 15 BigCof=    0.00 CofMax=   10.00 Det=-7.47D-23
 Inversion failed.  Reducing to 14 matrices.
 Coeff-Com: -0.134D+00-0.311D+00-0.207D+00 0.855D-01 0.760D+00-0.810D+00
 Coeff-Com: -0.373D+01 0.332D+01-0.435D-02 0.643D+00 0.221D+00 0.273D+00
 Coeff-Com:  0.175D+01-0.849D+00
 Coeff:     -0.134D+00-0.311D+00-0.207D+00 0.855D-01 0.760D+00-0.810D+00
 Coeff:     -0.373D+01 0.332D+01-0.435D-02 0.643D+00 0.221D+00 0.273D+00
 Coeff:      0.175D+01-0.849D+00
 Gap=     0.429 Goal=   None    Shift=    0.000
 RMSDP=2.88D-05 MaxDP=1.17D-04 DE= 1.26D-08 OVMax= 0.00D+00

 Cycle  73  Pass 1  IDiag  1:
 E= -33.0149732672972     Delta-E=       -0.000000019179 Rises=F Damp=F
 DIIS: error= 3.88D-09 at cycle  73 NSaved=  15.
 NSaved=15 IEnMin= 4 EnMin= -33.0149732772216     IErMin=13 ErrMin= 5.73D-10
 ErrMax= 3.88D-09  0.00D+00 EMaxC= 1.00D-01 BMatC= 1.04D-16 BMatP= 2.01D-18
 IDIUse=1 WtCom= 1.00D+00 WtEn= 0.00D+00
 Large coefficients: NSaved= 15 BigCof=    0.00 CofMax=   10.00 Det=-1.64D-23
 Inversion failed.  Reducing to 14 matrices.
 Coeff-Com: -0.976D-01-0.674D-01 0.617D+00-0.167D+00-0.674D+00 0.359D+00
 Coeff-Com:  0.150D+01-0.123D+01 0.754D-01 0.581D+00-0.600D-01-0.135D+00
 Coeff-Com:  0.792D+00-0.490D+00
 Coeff:     -0.976D-01-0.674D-01 0.617D+00-0.167D+00-0.674D+00 0.359D+00
 Coeff:      0.150D+01-0.123D+01 0.754D-01 0.581D+00-0.600D-01-0.135D+00
 Coeff:      0.792D+00-0.490D+00
 Gap=     0.429 Goal=   None    Shift=    0.000
 RMSDP=5.77D-05 MaxDP=2.31D-04 DE=-1.92D-08 OVMax= 0.00D+00

 Cycle  74  Pass 1  IDiag  1:
 E= -33.0149732730743     Delta-E=       -0.000000005777 Rises=F Damp=F
 DIIS: error= 9.34D-09 at cycle  74 NSaved=  15.
 NSaved=15 IEnMin= 4 EnMin= -33.0149732772216     IErMin=10 ErrMin= 9.95D-10
 ErrMax= 9.34D-09  0.00D+00 EMaxC= 1.00D-01 BMatC= 5.11D-16 BMatP= 1.69D-17
 IDIUse=1 WtCom= 1.00D+00 WtEn= 0.00D+00
 Large coefficients: NSaved= 15 BigCof=    0.00 CofMax=   10.00 Det=-3.23D-23
 Inversion failed.  Reducing to 14 matrices.
 Coeff-Com: -0.158D+00-0.246D+00 0.165D+00-0.501D-01 0.592D-01-0.807D+00
 Coeff-Com: -0.525D+00 0.947D-01-0.399D+00 0.122D+01 0.343D+00 0.120D+00
 Coeff-Com:  0.259D+00 0.927D+00
 Coeff:     -0.158D+00-0.246D+00 0.165D+00-0.501D-01 0.592D-01-0.807D+00
 Coeff:     -0.525D+00 0.947D-01-0.399D+00 0.122D+01 0.343D+00 0.120D+00
 Coeff:      0.259D+00 0.927D+00
 Gap=     0.429 Goal=   None    Shift=    0.000
 RMSDP=2.60D-05 MaxDP=1.04D-04 DE=-5.78D-09 OVMax= 0.00D+00

 Cycle  75  Pass 1  IDiag  1:
 E= -33.0149732631645     Delta-E=        0.000000009910 Rises=F Damp=F
 DIIS: error= 8.26D-10 at cycle  75 NSaved=  15.
 NSaved=15 IEnMin= 4 EnMin= -33.0149732772216     IErMin=15 ErrMin= 8.26D-10
 ErrMax= 8.26D-10  0.00D+00 EMaxC= 1.00D-01 BMatC= 1.03D-17 BMatP= 1.69D-17
 IDIUse=1 WtCom= 1.00D+00 WtEn= 0.00D+00
 Coeff-Com: -0.206D+00-0.224D+00 0.255D+00 0.101D+00 0.341D-01-0.864D+00
 Coeff-Com: -0.490D+00 0.383D-01-0.458D+00 0.101D+01 0.542D+00 0.870D-01
 Coeff-Com:  0.134D+00 0.782D+00 0.258D+00
 Coeff:     -0.206D+00-0.224D+00 0.255D+00 0.101D+00 0.341D-01-0.864D+00
 Coeff:     -0.490D+00 0.383D-01-0.458D+00 0.101D+01 0.542D+00 0.870D-01
 Coeff:      0.134D+00 0.782D+00 0.258D+00
 Gap=     0.429 Goal=   None    Shift=    0.000
 RMSDP=2.18D-06 MaxDP=8.76D-06 DE= 9.91D-09 OVMax= 0.00D+00

 Cycle  76  Pass 1  IDiag  1:
 E= -33.0149732569217     Delta-E=        0.000000006243 Rises=F Damp=F
 DIIS: error= 9.70D-10 at cycle  76 NSaved=  16.
 NSaved=16 IEnMin= 4 EnMin= -33.0149732772216     IErMin=15 ErrMin= 8.26D-10
 ErrMax= 9.70D-10  0.00D+00 EMaxC= 1.00D-01 BMatC= 6.52D-18 BMatP= 1.03D-17
 IDIUse=1 WtCom= 1.00D+00 WtEn= 0.00D+00
 Large coefficients: NSaved= 16 BigCof=    0.00 CofMax=   10.00 Det=-4.09D-23
 Inversion failed.  Reducing to 15 matrices.
[...]
 Coeff:      0.363D+00-0.582D+00 0.905D+00 0.990D-03 0.192D+00 0.385D+00
 Gap=     0.429 Goal=   None    Shift=    0.000
 RMSDP=6.19D-06 MaxDP=2.58D-05 DE= 1.27D-08 OVMax= 0.00D+00

 Cycle 108  Pass 1  IDiag  1:
 E= -33.0149732583478     Delta-E=       -0.000000004031 Rises=F Damp=F
 DIIS: error= 1.32D-09 at cycle 108 NSaved=  13.
 NSaved=13 IEnMin= 3 EnMin= -33.0149732772216     IErMin=10 ErrMin= 7.71D-10
 ErrMax= 1.32D-09  0.00D+00 EMaxC= 1.00D-01 BMatC= 2.05D-17 BMatP= 7.57D-18
 IDIUse=1 WtCom= 1.00D+00 WtEn= 0.00D+00
 Large coefficients: NSaved= 13 BigCof=    0.00 CofMax=   10.00 Det=-8.07D-23
 Inversion failed.  Reducing to 12 matrices.
 Coeff-Com: -0.155D+00 0.418D+00-0.841D+00 0.887D+00-0.459D+00 0.658D-01
 Coeff-Com:  0.156D+00-0.725D+00 0.120D+01 0.152D+00 0.499D+00-0.200D+00
 Coeff:     -0.155D+00 0.418D+00-0.841D+00 0.887D+00-0.459D+00 0.658D-01
 Coeff:      0.156D+00-0.725D+00 0.120D+01 0.152D+00 0.499D+00-0.200D+00
 Gap=     0.429 Goal=   None    Shift=    0.000
 RMSDP=9.30D-07 MaxDP=3.29D-06 DE=-4.03D-09 OVMax= 0.00D+00

 Cycle 109  Pass 1  IDiag  1:
 E= -33.0149732575911     Delta-E=        0.000000000757 Rises=F Damp=F
 DIIS: error= 6.08D-10 at cycle 109 NSaved=  13.
 NSaved=13 IEnMin= 3 EnMin= -33.0149732772216     IErMin=13 ErrMin= 6.08D-10
 ErrMax= 6.08D-10  0.00D+00 EMaxC= 1.00D-01 BMatC= 3.10D-18 BMatP= 1.72D-17
 IDIUse=1 WtCom= 1.00D+00 WtEn= 0.00D+00
 Coeff-Com:  0.172D+00 0.275D+00-0.118D+00 0.127D+00-0.323D+00 0.186D+00
 Coeff-Com:  0.165D-01-0.912D+00 0.123D+01-0.281D-01 0.688D+00-0.913D+00
 Coeff-Com:  0.596D+00
 Coeff:      0.172D+00 0.275D+00-0.118D+00 0.127D+00-0.323D+00 0.186D+00
 Coeff:      0.165D-01-0.912D+00 0.123D+01-0.281D-01 0.688D+00-0.913D+00
 Coeff:      0.596D+00
 Gap=     0.429 Goal=   None    Shift=    0.000
 RMSDP=2.81D-06 MaxDP=1.00D-05 DE= 7.57D-10 OVMax= 0.00D+00

 Cycle 110  Pass 1  IDiag  1:
 E= -33.0149732676319     Delta-E=       -0.000000010041 Rises=F Damp=F
 DIIS: error= 1.30D-09 at cycle 110 NSaved=  14.
 NSaved=14 IEnMin= 3 EnMin= -33.0149732772216     IErMin=13 ErrMin= 6.08D-10
 ErrMax= 1.30D-09  0.00D+00 EMaxC= 1.00D-01 BMatC= 1.59D-17 BMatP= 3.10D-18
 IDIUse=1 WtCom= 1.00D+00 WtEn= 0.00D+00
 Coeff-Com:  0.267D-01 0.271D+00-0.506D+00 0.472D+00-0.293D+00 0.946D-01
 Coeff-Com:  0.122D+00-0.680D+00 0.654D+00 0.185D+00 0.351D+00-0.441D+00
 Coeff-Com:  0.297D+00 0.448D+00
 Coeff:      0.267D-01 0.271D+00-0.506D+00 0.472D+00-0.293D+00 0.946D-01
 Coeff:      0.122D+00-0.680D+00 0.654D+00 0.185D+00 0.351D+00-0.441D+00
 Coeff:      0.297D+00 0.448D+00
 Gap=     0.429 Goal=   None    Shift=    0.000
 RMSDP=3.39D-06 MaxDP=1.29D-05 DE=-1.00D-08 OVMax= 0.00D+00

 Cycle 111  Pass 1  IDiag  1:
 E= -33.0149732660894     Delta-E=        0.000000001543 Rises=F Damp=F
 DIIS: error= 2.33D-09 at cycle 111 NSaved=  15.
 NSaved=15 IEnMin= 3 EnMin= -33.0149732772216     IErMin=13 ErrMin= 6.08D-10
 ErrMax= 2.33D-09  0.00D+00 EMaxC= 1.00D-01 BMatC= 4.61D-17 BMatP= 3.10D-18
 IDIUse=1 WtCom= 1.00D+00 WtEn= 0.00D+00
 Large coefficients: NSaved= 15 BigCof=    0.00 CofMax=   10.00 Det=-5.09D-23
 Inversion failed.  Reducing to 14 matrices.
 Coeff-Com: -0.118D+00 0.398D+00-0.170D+01 0.173D+01-0.503D+00-0.899D-02
 Coeff-Com:  0.385D+00-0.371D+00 0.490D+00 0.457D+00 0.105D+01-0.777D+00
 Coeff-Com:  0.595D+00-0.628D+00
 Coeff:     -0.118D+00 0.398D+00-0.170D+01 0.173D+01-0.503D+00-0.899D-02
 Coeff:      0.385D+00-0.371D+00 0.490D+00 0.457D+00 0.105D+01-0.777D+00
 Coeff:      0.595D+00-0.628D+00
 Gap=     0.429 Goal=   None    Shift=    0.000
 RMSDP=4.86D-06 MaxDP=1.72D-05 DE= 1.54D-09 OVMax= 0.00D+00

 Cycle 112  Pass 1  IDiag  1:
 E= -33.0149732656092     Delta-E=        0.000000000480 Rises=F Damp=F
 DIIS: error= 3.00D-09 at cycle 112 NSaved=  15.
 NSaved=15 IEnMin= 3 EnMin= -33.0149732772216     IErMin=12 ErrMin= 6.08D-10
 ErrMax= 3.00D-09  0.00D+00 EMaxC= 1.00D-01 BMatC= 5.62D-17 BMatP= 3.10D-18
 IDIUse=1 WtCom= 1.00D+00 WtEn= 0.00D+00
 Coeff-Com: -0.107D+00 0.222D+00-0.139D+01 0.155D+01-0.360D+00-0.197D+00
 Coeff-Com:  0.257D+00-0.673D+00 0.711D+00 0.354D+00 0.660D+00-0.508D+00
 Coeff-Com:  0.534D+00-0.379D+00 0.328D+00
 Coeff:     -0.107D+00 0.222D+00-0.139D+01 0.155D+01-0.360D+00-0.197D+00
 Coeff:      0.257D+00-0.673D+00 0.711D+00 0.354D+00 0.660D+00-0.508D+00
 Coeff:      0.534D+00-0.379D+00 0.328D+00
 Gap=     0.429 Goal=   None    Shift=    0.000
 RMSDP=2.56D-07 MaxDP=9.38D-07 DE= 4.80D-10 OVMax= 0.00D+00

 Cycle 113  Pass 1  IDiag  1:
 E= -33.0149732709497     Delta-E=       -0.000000005341 Rises=F Damp=F
 DIIS: error= 5.02D-09 at cycle 113 NSaved=  16.
 NSaved=16 IEnMin= 3 EnMin= -33.0149732772216     IErMin=12 ErrMin= 6.08D-10
 ErrMax= 5.02D-09  0.00D+00 EMaxC= 1.00D-01 BMatC= 1.56D-16 BMatP= 3.10D-18
 IDIUse=1 WtCom= 1.00D+00 WtEn= 0.00D+00
 Large coefficients: NSaved= 16 BigCof=    0.00 CofMax=   10.00 Det=-6.01D-23
 Inversion failed.  Reducing to 15 matrices.
 Large coefficients: NSaved= 15 BigCof=    0.00 CofMax=   10.00 Det=-6.11D-23
 Inversion failed.  Reducing to 14 matrices.
 Coeff-Com: -0.312D-01 0.537D-01-0.950D+00 0.114D+01-0.317D+00-0.349D+00
 Coeff-Com:  0.166D+00-0.998D+00 0.902D+00 0.298D+00 0.511D+00 0.247D-01
 Coeff-Com:  0.497D+00 0.501D-01
 Coeff:     -0.312D-01 0.537D-01-0.950D+00 0.114D+01-0.317D+00-0.349D+00
 Coeff:      0.166D+00-0.998D+00 0.902D+00 0.298D+00 0.511D+00 0.247D-01
 Coeff:      0.497D+00 0.501D-01
 Gap=     0.429 Goal=   None    Shift=    0.000
 RMSDP=5.45D-07 MaxDP=2.25D-06 DE=-5.34D-09 OVMax= 0.00D+00

 Cycle 114  Pass 1  IDiag  1:
 E= -33.0149732539240     Delta-E=        0.000000017026 Rises=F Damp=F
 DIIS: error= 1.49D-09 at cycle 114 NSaved=  15.
 NSaved=15 IEnMin= 3 EnMin= -33.0149732772216     IErMin=11 ErrMin= 1.30D-09
 ErrMax= 1.49D-09  0.00D+00 EMaxC= 1.00D-01 BMatC= 1.37D-17 BMatP= 1.59D-17
 IDIUse=1 WtCom= 1.00D+00 WtEn= 0.00D+00
 Coeff-Com: -0.321D-01 0.556D-01-0.952D+00 0.115D+01-0.319D+00-0.349D+00
 Coeff-Com:  0.166D+00-0.999D+00 0.904D+00 0.299D+00 0.511D+00 0.241D-01
 Coeff-Com:  0.497D+00 0.488D-01-0.130D-02
 Coeff:     -0.321D-01 0.556D-01-0.952D+00 0.115D+01-0.319D+00-0.349D+00
 Coeff:      0.166D+00-0.999D+00 0.904D+00 0.299D+00 0.511D+00 0.241D-01
 Coeff:      0.497D+00 0.488D-01-0.130D-02
 Gap=     0.429 Goal=   None    Shift=    0.000
 RMSDP=4.48D-09 MaxDP=1.94D-08 DE= 1.70D-08 OVMax= 0.00D+00

 Cycle 115  Pass 1  IDiag  1:
 E= -33.0149732590899     Delta-E=       -0.000000005166 Rises=F Damp=F
 DIIS: error= 9.67D-10 at cycle 115 NSaved=  16.
 NSaved=16 IEnMin= 3 EnMin= -33.0149732772216     IErMin=16 ErrMin= 9.67D-10
 ErrMax= 9.67D-10  0.00D+00 EMaxC= 1.00D-01 BMatC= 1.12D-17 BMatP= 1.37D-17
 IDIUse=1 WtCom= 1.00D+00 WtEn= 0.00D+00
 Large coefficients: NSaved= 16 BigCof=    0.00 CofMax=   10.00 Det=-1.28D-22
 Inversion failed.  Reducing to 15 matrices.
 Coeff-Com:  0.104D+00 0.151D+00-0.674D+00 0.885D+00-0.433D+00-0.117D+00
 Coeff-Com:  0.222D+00-0.448D+00 0.620D+00 0.381D+00 0.248D+00-0.878D-01
 Coeff-Com: -0.388D+00 0.656D-01 0.472D+00
 Coeff:      0.104D+00 0.151D+00-0.674D+00 0.885D+00-0.433D+00-0.117D+00
 Coeff:      0.222D+00-0.448D+00 0.620D+00 0.381D+00 0.248D+00-0.878D-01
 Coeff:     -0.388D+00 0.656D-01 0.472D+00
 Gap=     0.429 Goal=   None    Shift=    0.000
 RMSDP=1.43D-06 MaxDP=6.67D-06 DE=-5.17D-09 OVMax= 0.00D+00

 Cycle 116  Pass 1  IDiag  1:
 E= -33.0149732648961     Delta-E=       -0.000000005806 Rises=F Damp=F
 DIIS: error= 2.61D-09 at cycle 116 NSaved=  16.
 NSaved=16 IEnMin= 3 EnMin= -33.0149732772216     IErMin=15 ErrMin= 9.67D-10
 ErrMax= 2.61D-09  0.00D+00 EMaxC= 1.00D-01 BMatC= 4.89D-17 BMatP= 1.12D-17
 IDIUse=1 WtCom= 1.00D+00 WtEn= 0.00D+00
 Large coefficients: NSaved= 16 BigCof=    0.00 CofMax=   10.00 Det=-7.91D-23
 Inversion failed.  Reducing to 15 matrices.
 Large coefficients: NSaved= 15 BigCof=    0.00 CofMax=   10.00 Det=-3.11D-23
 Inversion failed.  Reducing to 14 matrices.
 Large coefficients: NSaved= 14 BigCof=    0.00 CofMax=   10.00 Det=-3.13D-23
 Inversion failed.  Reducing to 13 matrices.
 Coeff-Com: -0.227D+00 0.123D+00 0.501D+00-0.600D+00-0.105D+00 0.847D+00
 Coeff-Com:  0.160D+00-0.704D+00-0.141D+00-0.193D+00-0.543D+00 0.227D+00
 Coeff-Com:  0.166D+01
 Coeff:     -0.227D+00 0.123D+00 0.501D+00-0.600D+00-0.105D+00 0.847D+00
 Coeff:      0.160D+00-0.704D+00-0.141D+00-0.193D+00-0.543D+00 0.227D+00
 Coeff:      0.166D+01
 Gap=     0.429 Goal=   None    Shift=    0.000
 RMSDP=4.58D-06 MaxDP=1.76D-05 DE=-5.81D-09 OVMax= 0.00D+00

 Cycle 117  Pass 1  IDiag  1:
 E= -33.0149732663950     Delta-E=       -0.000000001499 Rises=F Damp=F
 DIIS: error= 2.08D-09 at cycle 117 NSaved=  14.
 NSaved=14 IEnMin= 3 EnMin= -33.0149732772216     IErMin=12 ErrMin= 9.67D-10
 ErrMax= 2.08D-09  0.00D+00 EMaxC= 1.00D-01 BMatC= 3.67D-17 BMatP= 1.12D-17
 IDIUse=1 WtCom= 1.00D+00 WtEn= 0.00D+00
 Coeff-Com: -0.620D-01 0.444D-01 0.602D+00-0.520D+00-0.147D+00 0.802D+00
 Coeff-Com:  0.122D+00-0.836D+00-0.233D-01-0.272D+00-0.678D+00 0.303D+00
 Coeff-Com:  0.180D+01-0.137D+00
 Coeff:     -0.620D-01 0.444D-01 0.602D+00-0.520D+00-0.147D+00 0.802D+00
 Coeff:      0.122D+00-0.836D+00-0.233D-01-0.272D+00-0.678D+00 0.303D+00
 Coeff:      0.180D+01-0.137D+00
 Gap=     0.429 Goal=   None    Shift=    0.000
 RMSDP=1.32D-06 MaxDP=5.31D-06 DE=-1.50D-09 OVMax= 0.00D+00

 Cycle 118  Pass 1  IDiag  1:
 E= -33.0149732602104     Delta-E=        0.000000006185 Rises=F Damp=F
 DIIS: error= 5.55D-10 at cycle 118 NSaved=  15.
 NSaved=15 IEnMin= 3 EnMin= -33.0149732772216     IErMin=15 ErrMin= 5.55D-10
 ErrMax= 5.55D-10  0.00D+00 EMaxC= 1.00D-01 BMatC= 6.26D-18 BMatP= 1.12D-17
 IDIUse=1 WtCom= 1.00D+00 WtEn= 0.00D+00
 Coeff-Com:  0.141D+00-0.109D+00 0.914D+00-0.638D+00-0.148D+00 0.663D+00
 Coeff-Com:  0.420D-01-0.889D+00 0.111D+00-0.432D+00-0.738D+00 0.450D+00
 Coeff-Com:  0.186D+01-0.517D+00 0.290D+00
 Coeff:      0.141D+00-0.109D+00 0.914D+00-0.638D+00-0.148D+00 0.663D+00
 Coeff:      0.420D-01-0.889D+00 0.111D+00-0.432D+00-0.738D+00 0.450D+00
 Coeff:      0.186D+01-0.517D+00 0.290D+00
 Gap=     0.429 Goal=   None    Shift=    0.000
 RMSDP=2.56D-06 MaxDP=1.02D-05 DE= 6.18D-09 OVMax= 0.00D+00

 Cycle 119  Pass 1  IDiag  1:
 E= -33.0149732785167     Delta-E=       -0.000000018306 Rises=F Damp=F
 DIIS: error= 7.10D-09 at cycle 119 NSaved=  16.
 NSaved=16 IEnMin=16 EnMin= -33.0149732785167     IErMin=15 ErrMin= 5.55D-10
 ErrMax= 7.10D-09  0.00D+00 EMaxC= 1.00D-01 BMatC= 3.28D-16 BMatP= 6.26D-18
 IDIUse=1 WtCom= 1.00D+00 WtEn= 0.00D+00
 Large coefficients: NSaved= 16 BigCof=    0.00 CofMax=   10.00 Det=-7.41D-24
 Inversion failed.  Reducing to 15 matrices.
 Large coefficients: NSaved= 15 BigCof=    0.00 CofMax=   10.00 Det=-7.61D-24
 Inversion failed.  Reducing to 14 matrices.
 Coeff-Com: -0.129D+00-0.675D-01-0.133D+00-0.133D-01-0.215D+00 0.356D+00
 Coeff-Com:  0.500D+00-0.830D-01-0.314D-01 0.446D+00 0.315D+00 0.792D+00
 Coeff-Com: -0.899D-01-0.647D+00
 Coeff:     -0.129D+00-0.675D-01-0.133D+00-0.133D-01-0.215D+00 0.356D+00
 Coeff:      0.500D+00-0.830D-01-0.314D-01 0.446D+00 0.315D+00 0.792D+00
 Coeff:     -0.899D-01-0.647D+00
 Gap=     0.429 Goal=   None    Shift=    0.000
 RMSDP=6.63D-06 MaxDP=2.91D-05 DE=-1.83D-08 OVMax= 0.00D+00

 Cycle 120  Pass 1  IDiag  1:
 E= -33.0149732680394     Delta-E=        0.000000010477 Rises=F Damp=F
 DIIS: error= 2.79D-09 at cycle 120 NSaved=  15.
 NSaved=15 IEnMin=14 EnMin= -33.0149732785167     IErMin=13 ErrMin= 5.55D-10
 ErrMax= 2.79D-09  0.00D+00 EMaxC= 1.00D-01 BMatC= 6.28D-17 BMatP= 6.26D-18
 IDIUse=1 WtCom= 1.00D+00 WtEn= 0.00D+00
 Large coefficients: NSaved= 15 BigCof=    0.00 CofMax=   10.00 Det=-6.83D-23
 Inversion failed.  Reducing to 14 matrices.
 Coeff-Com: -0.753D-01-0.109D+00-0.851D-01-0.348D-01-0.222D+00 0.290D+00
 Coeff-Com:  0.472D+00-0.130D+00 0.124D-01 0.438D+00 0.364D+00 0.673D+00
 Coeff-Com: -0.629D+00 0.367D-01
 Coeff:     -0.753D-01-0.109D+00-0.851D-01-0.348D-01-0.222D+00 0.290D+00
 Coeff:      0.472D+00-0.130D+00 0.124D-01 0.438D+00 0.364D+00 0.673D+00
 Coeff:     -0.629D+00 0.367D-01
 Gap=     0.429 Goal=   None    Shift=    0.000
 RMSDP=6.36D-07 MaxDP=2.41D-06 DE= 1.05D-08 OVMax= 0.00D+00

 Cycle 121  Pass 1  IDiag  1:
 E= -33.0149732649544     Delta-E=        0.000000003085 Rises=F Damp=F
 DIIS: error= 1.82D-09 at cycle 121 NSaved=  15.
 NSaved=15 IEnMin=13 EnMin= -33.0149732785167     IErMin=10 ErrMin= 1.30D-09
 ErrMax= 1.82D-09  0.00D+00 EMaxC= 1.00D-01 BMatC= 3.58D-17 BMatP= 1.59D-17
 IDIUse=1 WtCom= 1.00D+00 WtEn= 0.00D+00
 Large coefficients: NSaved= 15 BigCof=    0.00 CofMax=   10.00 Det=-1.43D-23
 Inversion failed.  Reducing to 14 matrices.
 Large coefficients: NSaved= 14 BigCof=    0.00 CofMax=   10.00 Det=-2.24D-23
 Inversion failed.  Reducing to 13 matrices.
 Large coefficients: NSaved= 13 BigCof=    0.00 CofMax=   10.00 Det=-2.94D-23
 Inversion failed.  Reducing to 12 matrices.
 Coeff-Com:  0.106D+01-0.101D+00-0.972D+00 0.227D+01-0.755D+00-0.135D+01
 Coeff-Com: -0.681D-01-0.100D+01 0.344D+01-0.646D+00-0.383D+01 0.294D+01
 Coeff:      0.106D+01-0.101D+00-0.972D+00 0.227D+01-0.755D+00-0.135D+01
 Coeff:     -0.681D-01-0.100D+01 0.344D+01-0.646D+00-0.383D+01 0.294D+01
 Gap=     0.429 Goal=   None    Shift=    0.000
 RMSDP=6.32D-06 MaxDP=2.53D-05 DE= 3.09D-09 OVMax= 0.00D+00

 Cycle 122  Pass 1  IDiag  1:
 E= -33.0149732682140     Delta-E=       -0.000000003260 Rises=F Damp=F
 DIIS: error= 3.80D-09 at cycle 122 NSaved=  13.
 NSaved=13 IEnMin=10 EnMin= -33.0149732785167     IErMin=12 ErrMin= 1.82D-09
 ErrMax= 3.80D-09  0.00D+00 EMaxC= 1.00D-01 BMatC= 1.06D-16 BMatP= 3.58D-17
 IDIUse=1 WtCom= 1.00D+00 WtEn= 0.00D+00
 Coeff-Com:  0.566D+00 0.953D-01-0.938D+00 0.138D+01 0.400D-01-0.103D+01
 Coeff-Com: -0.425D+00-0.990D+00 0.222D+01 0.105D+00-0.327D+01 0.289D+01
 Coeff-Com:  0.362D+00
 Coeff:      0.566D+00 0.953D-01-0.938D+00 0.138D+01 0.400D-01-0.103D+01
 Coeff:     -0.425D+00-0.990D+00 0.222D+01 0.105D+00-0.327D+01 0.289D+01
 Coeff:      0.362D+00
 Gap=     0.429 Goal=   None    Shift=    0.000
 RMSDP=3.15D-06 MaxDP=1.14D-05 DE=-3.26D-09 OVMax= 0.00D+00

 Cycle 123  Pass 1  IDiag  1:
 E= -33.0149732606906     Delta-E=        0.000000007523 Rises=F Damp=F
 DIIS: error= 9.84D-10 at cycle 123 NSaved=  14.
 NSaved=14 IEnMin=10 EnMin= -33.0149732785167     IErMin=14 ErrMin= 9.84D-10
 ErrMax= 9.84D-10  0.00D+00 EMaxC= 1.00D-01 BMatC= 1.43D-17 BMatP= 3.58D-17
 IDIUse=1 WtCom= 1.00D+00 WtEn= 0.00D+00
 Large coefficients: NSaved= 14 BigCof=    0.00 CofMax=   10.00 Det=-7.63D-23
 Inversion failed.  Reducing to 13 matrices.
 Coeff-Com: -0.319D+00-0.368D+00-0.929D-01-0.914D+00-0.368D+00 0.319D+00
 Coeff-Com:  0.131D+01 0.675D-01-0.108D+01 0.988D-01 0.173D+01-0.725D+00
 Coeff-Com:  0.134D+01
 Coeff:     -0.319D+00-0.368D+00-0.929D-01-0.914D+00-0.368D+00 0.319D+00
 Coeff:      0.131D+01 0.675D-01-0.108D+01 0.988D-01 0.173D+01-0.725D+00
 Coeff:      0.134D+01
 Gap=     0.429 Goal=   None    Shift=    0.000
 RMSDP=1.07D-05 MaxDP=4.73D-05 DE= 7.52D-09 OVMax= 0.00D+00

 Cycle 124  Pass 1  IDiag  1:
 E= -33.0149732551609     Delta-E=        0.000000005530 Rises=F Damp=F
 DIIS: error= 1.18D-09 at cycle 124 NSaved=  14.
 NSaved=14 IEnMin=10 EnMin= -33.0149732785167     IErMin=13 ErrMin= 9.84D-10
 ErrMax= 1.18D-09  0.00D+00 EMaxC= 1.00D-01 BMatC= 1.87D-17 BMatP= 1.43D-17
 IDIUse=1 WtCom= 1.00D+00 WtEn= 0.00D+00
 Coeff-Com: -0.517D+00-0.673D-01 0.149D+01-0.189D+01 0.895D+00 0.165D+01
 Coeff-Com:  0.534D+00 0.397D+00-0.202D+01-0.643D+00-0.168D+00-0.570D+00
 Coeff-Com:  0.114D+01 0.777D+00
 Coeff:     -0.517D+00-0.673D-01 0.149D+01-0.189D+01 0.895D+00 0.165D+01
 Coeff:      0.534D+00 0.397D+00-0.202D+01-0.643D+00-0.168D+00-0.570D+00
 Coeff:      0.114D+01 0.777D+00
 Gap=     0.429 Goal=   None    Shift=    0.000
 RMSDP=4.39D-06 MaxDP=1.53D-05 DE= 5.53D-09 OVMax= 0.00D+00

 Cycle 125  Pass 1  IDiag  1:
 E= -33.0149732668024     Delta-E=       -0.000000011642 Rises=F Damp=F
 DIIS: error= 3.45D-09 at cycle 125 NSaved=  15.
 NSaved=15 IEnMin=10 EnMin= -33.0149732785167     IErMin=13 ErrMin= 9.84D-10
 ErrMax= 3.45D-09  0.00D+00 EMaxC= 1.00D-01 BMatC= 7.19D-17 BMatP= 1.43D-17
 IDIUse=1 WtCom= 1.00D+00 WtEn= 0.00D+00
 Large coefficients: NSaved= 15 BigCof=    0.00 CofMax=   10.00 Det=-9.01D-23
 Inversion failed.  Reducing to 14 matrices.
 Coeff-Com: -0.575D+00 0.751D+00-0.157D+00-0.544D+00 0.756D+00 0.810D+00
 Coeff-Com: -0.706D+00-0.850D+00-0.320D+00 0.527D+00-0.233D+00 0.584D+00
 Coeff-Com:  0.367D+00 0.590D+00
 Coeff:     -0.575D+00 0.751D+00-0.157D+00-0.544D+00 0.756D+00 0.810D+00
 Coeff:     -0.706D+00-0.850D+00-0.320D+00 0.527D+00-0.233D+00 0.584D+00
 Coeff:      0.367D+00 0.590D+00
 Gap=     0.429 Goal=   None    Shift=    0.000
 RMSDP=1.37D-05 MaxDP=5.65D-05 DE=-1.16D-08 OVMax= 0.00D+00

 Cycle 126  Pass 1  IDiag  1:
 E= -33.0149732646488     Delta-E=        0.000000002154 Rises=F Damp=F
 DIIS: error= 6.63D-10 at cycle 126 NSaved=  15.
 NSaved=15 IEnMin=10 EnMin= -33.0149732785167     IErMin=15 ErrMin= 6.63D-10
 ErrMax= 6.63D-10  0.00D+00 EMaxC= 1.00D-01 BMatC= 5.12D-18 BMatP= 1.87D-17
 IDIUse=1 WtCom= 1.00D+00 WtEn= 0.00D+00
 Coeff-Com: -0.409D+00 0.267D+00 0.114D+00-0.737D+00 0.682D+00 0.562D+00
 Coeff-Com: -0.101D+00-0.267D+00-0.649D+00 0.106D+00-0.983D-01 0.288D+00
 Coeff-Com:  0.270D+00 0.372D+00 0.602D+00
 Coeff:     -0.409D+00 0.267D+00 0.114D+00-0.737D+00 0.682D+00 0.562D+00
 Coeff:     -0.101D+00-0.267D+00-0.649D+00 0.106D+00-0.983D-01 0.288D+00
 Coeff:      0.270D+00 0.372D+00 0.602D+00
 Gap=     0.429 Goal=   None    Shift=    0.000
 RMSDP=4.07D-06 MaxDP=1.65D-05 DE= 2.15D-09 OVMax= 0.00D+00

 Cycle 127  Pass 1  IDiag  1:
 E= -33.0149732598612     Delta-E=        0.000000004788 Rises=F Damp=F
 DIIS: error= 1.36D-09 at cycle 127 NSaved=  16.
 NSaved=16 IEnMin=10 EnMin= -33.0149732785167     IErMin=15 ErrMin= 6.63D-10
 ErrMax= 1.36D-09  0.00D+00 EMaxC= 1.00D-01 BMatC= 1.09D-17 BMatP= 5.12D-18
 IDIUse=1 WtCom= 1.00D+00 WtEn= 0.00D+00
 Large coefficients: NSaved= 16 BigCof=    0.00 CofMax=   10.00 Det=-2.10D-23
 Inversion failed.  Reducing to 15 matrices.
 Coeff-Com: -0.465D+00 0.448D+00-0.720D+00-0.133D+00 0.207D+00 0.151D+00
 Coeff-Com: -0.128D-01-0.339D+00-0.161D+00 0.696D+00 0.557D+00 0.204D+00
 Coeff-Com:  0.534D-01-0.119D+00 0.633D+00
 Coeff:     -0.465D+00 0.448D+00-0.720D+00-0.133D+00 0.207D+00 0.151D+00
 Coeff:     -0.128D-01-0.339D+00-0.161D+00 0.696D+00 0.557D+00 0.204D+00
 Coeff:      0.534D-01-0.119D+00 0.633D+00
 Gap=     0.429 Goal=   None    Shift=    0.000
 RMSDP=7.63D-08 MaxDP=2.73D-07 DE= 4.79D-09 OVMax= 0.00D+00

 Cycle 128  Pass 1  IDiag  1:
 E= -33.0149732580567     Delta-E=        0.000000001804 Rises=F Damp=F
 DIIS: error= 1.29D-09 at cycle 128 NSaved=  16.
 NSaved=16 IEnMin=10 EnMin= -33.0149732785167     IErMin=14 ErrMin= 6.63D-10
 ErrMax= 1.29D-09  0.00D+00 EMaxC= 1.00D-01 BMatC= 1.66D-17 BMatP= 5.12D-18
 IDIUse=1 WtCom= 1.00D+00 WtEn= 0.00D+00
 Large coefficients: NSaved= 16 BigCof=    0.00 CofMax=   10.00 Det=-3.75D-23
 Inversion failed.  Reducing to 15 matrices.
 Coeff-Com: -0.453D+00 0.400D+00-0.672D+00-0.185D+00 0.227D+00 0.136D+00
 Coeff-Com:  0.248D-01-0.293D+00-0.210D+00 0.648D+00 0.551D+00 0.184D+00
 Coeff-Com:  0.745D-01 0.587D+00-0.189D-01
 Coeff:     -0.453D+00 0.400D+00-0.672D+00-0.185D+00 0.227D+00 0.136D+00
 Coeff:      0.248D-01-0.293D+00-0.210D+00 0.648D+00 0.551D+00 0.184D+00
 Coeff:      0.745D-01 0.587D+00-0.189D-01
 Gap=     0.429 Goal=   None    Shift=    0.000
 RMSDP=2.04D-07 MaxDP=8.39D-07 DE= 1.80D-09 OVMax= 0.00D+00

 >>>>>>>>>> Convergence criterion not met.
 SCF Done:  E(RHF) =  -33.0149732581     A.U. after  129 cycles
            NFock=128  Conv=0.20D-06     -V/T= 3.4546
 KE= 1.345008571347D+01 PE=-1.937638797441D+02 EE= 7.192737258188D+01
 Convergence failure -- run terminated.
 Error termination via Lnk1e in /usr/local/g16reva03/legacy_cpu/g16/l502.exe at Wed Nov 24 13:33:07 2021.
 Job cpu time:       0 days  0 hours  0 minutes  9.2 seconds.
 Elapsed time:       0 days  0 hours  0 minutes  1.5 seconds.
 File lengths (MBytes):  RWF=      6 Int=      0 D2E=      0 Chk=      8 Scr=      1
