 Entering Gaussian System, Link 0=g16
 Input=h2-16.com
 Output=h2-16.log
 Initial command:
 /usr/local/g16reva03/legacy_cpu/g16/l1.exe "/scratch/global/g16/Gau-10412.inp" -scrdir="/scratch/global/g16/"
 Entering Link 1 = /usr/local/g16reva03/legacy_cpu/g16/l1.exe PID=     10413.
  
 Copyright (c) 1988,1990,1992,1993,1995,1998,2003,2009,2016,
            Gaussian, Inc.  All Rights Reserved.
  
 This is part of the Gaussian(R) 16 program.  It is based on
 the Gaussian(R) 09 system (copyright 2009, Gaussian, Inc.),
 the Gaussian(R) 03 system (copyright 2003, Gaussian, Inc.),
 the Gaussian(R) 98 system (copyright 1998, Gaussian, Inc.),
 the Gaussian(R) 94 system (copyright 1995, Gaussian, Inc.),
 the Gaussian 92(TM) system (copyright 1992, Gaussian, Inc.),
 the Gaussian 90(TM) system (copyright 1990, Gaussian, Inc.),
 the Gaussian 88(TM) system (copyright 1988, Gaussian, Inc.),
 the Gaussian 86(TM) system (copyright 1986, Carnegie Mellon
 University), and the Gaussian 82(TM) system (copyright 1983,
 Carnegie Mellon University). Gaussian is a federally registered
 trademark of Gaussian, Inc.
  
 This software contains proprietary and confidential information,
 including trade secrets, belonging to Gaussian, Inc.
  
 This software is provided under written license and may be
 used, copied, transmitted, or stored only in accord with that
 written license.
  
 The following legend is applicable only to US Government
 contracts under FAR:
  
                    RESTRICTED RIGHTS LEGEND
  
 Use, reproduction and disclosure by the US Government is
 subject to restrictions as set forth in subparagraphs (a)
 and (c) of the Commercial Computer Software - Restricted
 Rights clause in FAR 52.227-19.
  
 Gaussian, Inc.
 340 Quinnipiac St., Bldg. 40, Wallingford CT 06492
  
  
 ---------------------------------------------------------------
 Warning -- This program may not be used in any manner that
 competes with the business of Gaussian, Inc. or will provide
 assistance to any competitor of Gaussian, Inc.  The licensee
 of this program is prohibited from giving any competitor of
 Gaussian, Inc. access to this program.  By using this program,
 the user acknowledges that Gaussian, Inc. is engaged in the
 business of creating and licensing software in the field of
 computational chemistry and represents and warrants to the
 licensee that it is not a competitor of Gaussian, Inc. and that
 it will not use this program in any manner prohibited above.
 ---------------------------------------------------------------
  

 Cite this work as:
 Gaussian 16, Revision A.03,
 M. J. Frisch, G. W. Trucks, H. B. Schlegel, G. E. Scuseria, 
 M. A. Robb, J. R. Cheeseman, G. Scalmani, V. Barone, 
 G. A. Petersson, H. Nakatsuji, X. Li, M. Caricato, A. V. Marenich, 
 J. Bloino, B. G. Janesko, R. Gomperts, B. Mennucci, H. P. Hratchian, 
 J. V. Ortiz, A. F. Izmaylov, J. L. Sonnenberg, D. Williams-Young, 
 F. Ding, F. Lipparini, F. Egidi, J. Goings, B. Peng, A. Petrone, 
 T. Henderson, D. Ranasinghe, V. G. Zakrzewski, J. Gao, N. Rega, 
 G. Zheng, W. Liang, M. Hada, M. Ehara, K. Toyota, R. Fukuda, 
 J. Hasegawa, M. Ishida, T. Nakajima, Y. Honda, O. Kitao, H. Nakai, 
 T. Vreven, K. Throssell, J. A. Montgomery, Jr., J. E. Peralta, 
 F. Ogliaro, M. J. Bearpark, J. J. Heyd, E. N. Brothers, K. N. Kudin, 
 V. N. Staroverov, T. A. Keith, R. Kobayashi, J. Normand, 
 K. Raghavachari, A. P. Rendell, J. C. Burant, S. S. Iyengar, 
 J. Tomasi, M. Cossi, J. M. Millam, M. Klene, C. Adamo, R. Cammi, 
 J. W. Ochterski, R. L. Martin, K. Morokuma, O. Farkas, 
 J. B. Foresman, and D. J. Fox, Gaussian, Inc., Wallingford CT, 2016.
 
 ******************************************
 Gaussian 16:  EM64L-G16RevA.03 25-Dec-2016
                 5-Dec-2021 
 ******************************************
 ------------------------------------------------
 #p rhf nosymm output=matrix int=noraf scf=conven
 ------------------------------------------------
 1/38=1,172=1/1;
 2/12=2,15=1,17=6,18=5,40=1/2;
 3/25=20,28=1,30=1,116=1/1,2,3,8,20;
 4//1;
 5/5=1,29=1/2;
 6/7=2,8=2,9=2,10=2,28=1/1;
 99/5=1,6=100000,9=1/99;
 Leave Link    1 at Sun Dec  5 13:03:38 2021, MaxMem=           0 cpu:               0.1 elap:               0.4
 (Enter /usr/local/g16reva03/legacy_cpu/g16/l101.exe)
 --------
 h2-sto3g
 --------
 Symbolic Z-matrix:
 Charge =  0 Multiplicity = 1
 H
 H                    1     1.2 
 H                    2     1.2      1     180. 
 H                    3     1.2      2     180.     1     0.       0
 H                    4     1.2      3     180.     1     0.       0
 H                    5     1.2      4     180.     1     0.       0
 H                    6     1.2      5     180.     1     0.       0
 H                    7     1.2      6     180.     1     0.       0
 H                    8     1.2      7     180.     1     0.       0
 H                    9     1.2      8     180.     1     0.       0
 H                    10    1.2      9     180.     1     0.       0
 H                    11    1.2      10    180.     1     0.       0
 H                    12    1.2      11    180.     1     0.       0
 H                    13    1.2      12    180.     1     0.       0
 H                    14    1.2      13    180.     1     0.       0
 H                    15    1.2      14    180.     1     0.       0
 
 ITRead=  0  0  0  0  0  0  0  0  0  0  0  0  0  0  0  0
 MicOpt= -1 -1 -1 -1 -1 -1 -1 -1 -1 -1 -1 -1 -1 -1 -1 -1
 NAtoms=     16 NQM=       16 NQMF=       0 NMMI=      0 NMMIF=      0
                NMic=       0 NMicF=      0.
                    Isotopes and Nuclear Properties:
 (Nuclear quadrupole moments (NQMom) in fm**2, nuclear magnetic moments (NMagM)
  in nuclear magnetons)

  Atom         1           2           3           4           5           6           7           8           9          10
 IAtWgt=           1           1           1           1           1           1           1           1           1           1
 AtmWgt=   1.0078250   1.0078250   1.0078250   1.0078250   1.0078250   1.0078250   1.0078250   1.0078250   1.0078250   1.0078250
 NucSpn=           1           1           1           1           1           1           1           1           1           1
 AtZEff=  -0.0000000  -0.0000000  -0.0000000  -0.0000000  -0.0000000  -0.0000000  -0.0000000  -0.0000000  -0.0000000  -0.0000000
 NQMom=    0.0000000   0.0000000   0.0000000   0.0000000   0.0000000   0.0000000   0.0000000   0.0000000   0.0000000   0.0000000
 NMagM=    2.7928460   2.7928460   2.7928460   2.7928460   2.7928460   2.7928460   2.7928460   2.7928460   2.7928460   2.7928460
 AtZNuc=   1.0000000   1.0000000   1.0000000   1.0000000   1.0000000   1.0000000   1.0000000   1.0000000   1.0000000   1.0000000

  Atom        11          12          13          14          15          16
 IAtWgt=           1           1           1           1           1           1
 AtmWgt=   1.0078250   1.0078250   1.0078250   1.0078250   1.0078250   1.0078250
 NucSpn=           1           1           1           1           1           1
 AtZEff=  -0.0000000  -0.0000000  -0.0000000  -0.0000000  -0.0000000  -0.0000000
 NQMom=    0.0000000   0.0000000   0.0000000   0.0000000   0.0000000   0.0000000
 NMagM=    2.7928460   2.7928460   2.7928460   2.7928460   2.7928460   2.7928460
 AtZNuc=   1.0000000   1.0000000   1.0000000   1.0000000   1.0000000   1.0000000
 Leave Link  101 at Sun Dec  5 13:03:38 2021, MaxMem=   104857600 cpu:               0.2 elap:               0.3
 (Enter /usr/local/g16reva03/legacy_cpu/g16/l202.exe)
                          Input orientation:                          
 ---------------------------------------------------------------------
 Center     Atomic      Atomic             Coordinates (Angstroms)
 Number     Number       Type             X           Y           Z
 ---------------------------------------------------------------------
      1          1           0        0.000000    0.000000    0.000000
      2          1           0        0.000000    0.000000    1.200000
      3          1           0        0.000000    0.000000    2.400000
      4          1           0        0.000000    0.000000    3.600000
      5          1           0        0.000000    0.000000    4.800000
      6          1           0        0.000000    0.000000    6.000000
      7          1           0        0.000000    0.000000    7.200000
      8          1           0        0.000000    0.000000    8.400000
      9          1           0        0.000000    0.000000    9.600000
     10          1           0        0.000000    0.000000   10.800000
     11          1           0        0.000000    0.000000   12.000000
     12          1           0        0.000000    0.000000   13.200000
     13          1           0        0.000000    0.000000   14.400000
     14          1           0        0.000000    0.000000   15.600000
     15          1           0        0.000000    0.000000   16.800000
     16          1           0        0.000000    0.000000   18.000000
 ---------------------------------------------------------------------
                    Distance matrix (angstroms):
                    1          2          3          4          5
     1  H    0.000000
     2  H    1.200000   0.000000
     3  H    2.400000   1.200000   0.000000
     4  H    3.600000   2.400000   1.200000   0.000000
     5  H    4.800000   3.600000   2.400000   1.200000   0.000000
     6  H    6.000000   4.800000   3.600000   2.400000   1.200000
     7  H    7.200000   6.000000   4.800000   3.600000   2.400000
     8  H    8.400000   7.200000   6.000000   4.800000   3.600000
     9  H    9.600000   8.400000   7.200000   6.000000   4.800000
    10  H   10.800000   9.600000   8.400000   7.200000   6.000000
    11  H   12.000000  10.800000   9.600000   8.400000   7.200000
    12  H   13.200000  12.000000  10.800000   9.600000   8.400000
    13  H   14.400000  13.200000  12.000000  10.800000   9.600000
    14  H   15.600000  14.400000  13.200000  12.000000  10.800000
    15  H   16.800000  15.600000  14.400000  13.200000  12.000000
    16  H   18.000000  16.800000  15.600000  14.400000  13.200000
                    6          7          8          9         10
     6  H    0.000000
     7  H    1.200000   0.000000
     8  H    2.400000   1.200000   0.000000
     9  H    3.600000   2.400000   1.200000   0.000000
    10  H    4.800000   3.600000   2.400000   1.200000   0.000000
    11  H    6.000000   4.800000   3.600000   2.400000   1.200000
    12  H    7.200000   6.000000   4.800000   3.600000   2.400000
    13  H    8.400000   7.200000   6.000000   4.800000   3.600000
    14  H    9.600000   8.400000   7.200000   6.000000   4.800000
    15  H   10.800000   9.600000   8.400000   7.200000   6.000000
    16  H   12.000000  10.800000   9.600000   8.400000   7.200000
                   11         12         13         14         15
    11  H    0.000000
    12  H    1.200000   0.000000
    13  H    2.400000   1.200000   0.000000
    14  H    3.600000   2.400000   1.200000   0.000000
    15  H    4.800000   3.600000   2.400000   1.200000   0.000000
    16  H    6.000000   4.800000   3.600000   2.400000   1.200000
                   16
    16  H    0.000000
 Symmetry turned off by external request.
 Stoichiometry    H16
 Framework group  D*H[C*(HHHHHHHH.HHHHHHHH)]
 Deg. of freedom     8
 Full point group                 D*H     NOp   8
 Rotational constants (GHZ):           0.0000000           1.0242139           1.0242139
 Leave Link  202 at Sun Dec  5 13:03:39 2021, MaxMem=   104857600 cpu:               0.1 elap:               0.1
 (Enter /usr/local/g16reva03/legacy_cpu/g16/l301.exe)
 Standard basis: STO-3G (5D, 7F)
 Ernie: Thresh=  0.10000D-02 Tol=  0.10000D-05 Strict=F.
    16 basis functions,    48 primitive gaussians,    16 cartesian basis functions
     8 alpha electrons        8 beta electrons
       nuclear repulsion energy        16.7977003812 Hartrees.
 IExCor=    0 DFT=F Ex=HF Corr=None ExCW=0 ScaHFX=  1.000000
 ScaDFX=  1.000000  1.000000  1.000000  1.000000 ScalE2=  1.000000  1.000000
 IRadAn=      5 IRanWt=     -1 IRanGd=            0 ICorTp=0 IEmpDi=  4
 NAtoms=   16 NActive=   16 NUniq=   16 SFac= 1.00D+00 NAtFMM=   60 NAOKFM=F Big=F
 Integral buffers will be    131072 words long.
 Regular integral format.
 Two-electron integral symmetry is turned off.
 Leave Link  301 at Sun Dec  5 13:03:39 2021, MaxMem=   104857600 cpu:               0.1 elap:               0.3
 (Enter /usr/local/g16reva03/legacy_cpu/g16/l302.exe)
 NPDir=0 NMtPBC=     1 NCelOv=     1 NCel=       1 NClECP=     1 NCelD=      1
         NCelK=      1 NCelE2=     1 NClLst=     1 CellRange=     0.0.
 One-electron integrals computed using PRISM.
 NBasis=    16 RedAO= T EigKep=  3.43D-01  NBF=    16
 NBsUse=    16 1.00D-06 EigRej= -1.00D+00 NBFU=    16
 Leave Link  302 at Sun Dec  5 13:03:39 2021, MaxMem=   104857600 cpu:               0.1 elap:               0.2
 (Enter /usr/local/g16reva03/legacy_cpu/g16/l303.exe)
 DipDrv:  MaxL=1.
 Leave Link  303 at Sun Dec  5 13:03:40 2021, MaxMem=   104857600 cpu:               0.1 elap:               0.1
 (Enter /usr/local/g16reva03/legacy_cpu/g16/l308.exe)
 Leave Link  308 at Sun Dec  5 13:03:40 2021, MaxMem=   104857600 cpu:               0.1 elap:               0.1
 (Enter /usr/local/g16reva03/legacy_cpu/g16/l320.exe)
 Enter DskPsm, NBasis=  16 NBas6D=  16 NShell=  16 IDoSP=4.
 Out2e will use a cutoff of  1.00D-10
 FoFCou: FMM=F IPFlag=           0 FMFlag=           0 FMFlg1=           0
         NFxFlg=           0 DoJE=F BraDBF=F KetDBF=F FulRan=T
         wScrn=  0.000000 ICntrl=       600 IOpCl=  9 I1Cent=           0 NGrid=           0
         NMat0=    0 NMatS0=      0 NMatT0=    0 NMatD0=    0 NMtDS0=    0 NMtDT0=    0
 Symmetry not used in FoFCou.
         3621 integrals produced for a total of         3621.
 Leave Link  320 at Sun Dec  5 13:03:40 2021, MaxMem=   104857600 cpu:               0.1 elap:               0.2
 (Enter /usr/local/g16reva03/legacy_cpu/g16/l401.exe)
 ExpMin= 1.69D-01 ExpMax= 3.43D+00 ExpMxC= 3.43D+00 IAcc=3 IRadAn=         5 AccDes= 0.00D+00
 Harris functional with IExCor=  205 and IRadAn=       5 diagonalized for initial guess.
 HarFok:  IExCor=  205 AccDes= 0.00D+00 IRadAn=         5 IDoV= 1 UseB2=F ITyADJ=14
 ICtDFT=  3500011 ScaDFX=  1.000000  1.000000  1.000000  1.000000
 FoFCou: FMM=F IPFlag=           0 FMFlag=      100000 FMFlg1=           0
         NFxFlg=           0 DoJE=T BraDBF=F KetDBF=T FulRan=T
         wScrn=  0.000000 ICntrl=       500 IOpCl=  0 I1Cent=   200000004 NGrid=           0
         NMat0=    1 NMatS0=      1 NMatT0=    0 NMatD0=    1 NMtDS0=    0 NMtDT0=    0
 Symmetry not used in FoFCou.
 Harris En= -8.80853160775373    
 JPrj=0 DoOrth=F DoCkMO=F.
 Leave Link  401 at Sun Dec  5 13:03:42 2021, MaxMem=   104857600 cpu:               1.7 elap:               1.8
 (Enter /usr/local/g16reva03/legacy_cpu/g16/l502.exe)
 Two-electron integral symmetry not used.
 Closed shell SCF:
 Using DIIS extrapolation, IDIIS=  1040.
 Unsorted integral processing.
 NGot=   104857600 LenX=   104593776 LenY=   104592894
 Requested convergence on RMS density matrix=1.00D-08 within 128 cycles.
 Requested convergence on MAX density matrix=1.00D-06.
 Requested convergence on             energy=1.00D-06.
 No special actions if energy rises.

 Cycle   1  Pass 1  IDiag  1:
 E= -8.00703127804610    
 DIIS: error= 1.39D-02 at cycle   1 NSaved=   1.
 NSaved= 1 IEnMin= 1 EnMin= -8.00703127804610     IErMin= 1 ErrMin= 1.39D-02
 ErrMax= 1.39D-02  0.00D+00 EMaxC= 1.00D-01 BMatC= 2.88D-03 BMatP= 2.88D-03
 IDIUse=3 WtCom= 8.61D-01 WtEn= 1.39D-01
 Coeff-Com:  0.100D+01
 Coeff-En:   0.100D+01
 Coeff:      0.100D+01
 Gap=     0.222 Goal=   None    Shift=    0.000
 GapD=    0.222 DampG=1.000 DampE=0.500 DampFc=0.5000 IDamp=-1.
 Damping current iteration by 5.00D-01
 RMSDP=1.11D-02 MaxDP=2.72D-02              OVMax= 0.00D+00

 Cycle   2  Pass 1  IDiag  1:
 E= -8.01438633315457     Delta-E=       -0.007355055108 Rises=F Damp=T
 DIIS: error= 9.36D-03 at cycle   2 NSaved=   2.
 NSaved= 2 IEnMin= 2 EnMin= -8.01438633315457     IErMin= 2 ErrMin= 9.36D-03
 ErrMax= 9.36D-03  0.00D+00 EMaxC= 1.00D-01 BMatC= 1.65D-03 BMatP= 2.88D-03
 IDIUse=3 WtCom= 9.06D-01 WtEn= 9.36D-02
 Coeff-Com: -0.199D+01 0.299D+01
 Coeff-En:   0.000D+00 0.100D+01
 Coeff:     -0.180D+01 0.280D+01
 Gap=     0.256 Goal=   None    Shift=    0.000
 RMSDP=1.36D-02 MaxDP=3.48D-02 DE=-7.36D-03 OVMax= 0.00D+00

 Cycle   3  Pass 1  IDiag  1:
 E= -8.03095056302053     Delta-E=       -0.016564229866 Rises=F Damp=F
 DIIS: error= 2.49D-03 at cycle   3 NSaved=   3.
 NSaved= 3 IEnMin= 3 EnMin= -8.03095056302053     IErMin= 3 ErrMin= 2.49D-03
 ErrMax= 2.49D-03  0.00D+00 EMaxC= 1.00D-01 BMatC= 1.40D-04 BMatP= 1.65D-03
 IDIUse=3 WtCom= 9.75D-01 WtEn= 2.49D-02
 Coeff-Com:  0.258D+00-0.690D+00 0.143D+01
 Coeff-En:   0.000D+00 0.000D+00 0.100D+01
 Coeff:      0.252D+00-0.672D+00 0.142D+01
 Gap=     0.276 Goal=   None    Shift=    0.000
 RMSDP=4.57D-03 MaxDP=1.41D-02 DE=-1.66D-02 OVMax= 0.00D+00

 Cycle   4  Pass 1  IDiag  1:
 E= -8.03201832344598     Delta-E=       -0.001067760425 Rises=F Damp=F
 DIIS: error= 3.59D-04 at cycle   4 NSaved=   4.
 NSaved= 4 IEnMin= 4 EnMin= -8.03201832344598     IErMin= 4 ErrMin= 3.59D-04
 ErrMax= 3.59D-04  0.00D+00 EMaxC= 1.00D-01 BMatC= 3.90D-06 BMatP= 1.40D-04
 IDIUse=3 WtCom= 9.96D-01 WtEn= 3.59D-03
 Coeff-Com: -0.267D-01 0.148D+00-0.451D+00 0.133D+01
 Coeff-En:   0.000D+00 0.000D+00 0.000D+00 0.100D+01
 Coeff:     -0.266D-01 0.147D+00-0.449D+00 0.133D+01
 Gap=     0.276 Goal=   None    Shift=    0.000
 RMSDP=3.95D-04 MaxDP=1.54D-03 DE=-1.07D-03 OVMax= 0.00D+00

 Cycle   5  Pass 1  IDiag  1:
 E= -8.03203521257806     Delta-E=       -0.000016889132 Rises=F Damp=F
 DIIS: error= 1.04D-04 at cycle   5 NSaved=   5.
 NSaved= 5 IEnMin= 5 EnMin= -8.03203521257806     IErMin= 5 ErrMin= 1.04D-04
 ErrMax= 1.04D-04  0.00D+00 EMaxC= 1.00D-01 BMatC= 2.36D-07 BMatP= 3.90D-06
 IDIUse=3 WtCom= 9.99D-01 WtEn= 1.04D-03
 Coeff-Com:  0.108D-01-0.132D-01-0.290D-01-0.856D-01 0.112D+01
 Coeff-En:   0.000D+00 0.000D+00 0.000D+00 0.000D+00 0.100D+01
 Coeff:      0.108D-01-0.132D-01-0.290D-01-0.855D-01 0.112D+01
 Gap=     0.277 Goal=   None    Shift=    0.000
 RMSDP=1.72D-04 MaxDP=6.90D-04 DE=-1.69D-05 OVMax= 0.00D+00

 Cycle   6  Pass 1  IDiag  1:
 E= -8.03203690505851     Delta-E=       -0.000001692480 Rises=F Damp=F
 DIIS: error= 1.75D-05 at cycle   6 NSaved=   6.
 NSaved= 6 IEnMin= 6 EnMin= -8.03203690505851     IErMin= 6 ErrMin= 1.75D-05
 ErrMax= 1.75D-05  0.00D+00 EMaxC= 1.00D-01 BMatC= 4.78D-09 BMatP= 2.36D-07
 IDIUse=1 WtCom= 1.00D+00 WtEn= 0.00D+00
 Coeff-Com:  0.539D-03-0.613D-02 0.220D-01-0.564D-01-0.952D-01 0.114D+01
 Coeff:      0.539D-03-0.613D-02 0.220D-01-0.564D-01-0.952D-01 0.114D+01
 Gap=     0.277 Goal=   None    Shift=    0.000
 RMSDP=2.64D-05 MaxDP=1.09D-04 DE=-1.69D-06 OVMax= 0.00D+00

 Cycle   7  Pass 1  IDiag  1:
 E= -8.03203693053221     Delta-E=       -0.000000025474 Rises=F Damp=F
 DIIS: error= 3.90D-06 at cycle   7 NSaved=   7.
 NSaved= 7 IEnMin= 7 EnMin= -8.03203693053221     IErMin= 7 ErrMin= 3.90D-06
 ErrMax= 3.90D-06  0.00D+00 EMaxC= 1.00D-01 BMatC= 2.19D-10 BMatP= 4.78D-09
 IDIUse=1 WtCom= 1.00D+00 WtEn= 0.00D+00
 Coeff-Com: -0.821D-03 0.217D-02-0.267D-02 0.109D-01-0.137D-01-0.114D+00
 Coeff-Com:  0.112D+01
 Coeff:     -0.821D-03 0.217D-02-0.267D-02 0.109D-01-0.137D-01-0.114D+00
 Coeff:      0.112D+01
 Gap=     0.277 Goal=   None    Shift=    0.000
 RMSDP=6.08D-06 MaxDP=1.94D-05 DE=-2.55D-08 OVMax= 0.00D+00

 Cycle   8  Pass 1  IDiag  1:
 E= -8.03203693188334     Delta-E=       -0.000000001351 Rises=F Damp=F
 DIIS: error= 5.64D-07 at cycle   8 NSaved=   8.
 NSaved= 8 IEnMin= 8 EnMin= -8.03203693188334     IErMin= 8 ErrMin= 5.64D-07
 ErrMax= 5.64D-07  0.00D+00 EMaxC= 1.00D-01 BMatC= 7.16D-12 BMatP= 2.19D-10
 IDIUse=1 WtCom= 1.00D+00 WtEn= 0.00D+00
 Coeff-Com:  0.531D-04 0.417D-04-0.712D-03 0.155D-02 0.296D-02-0.372D-01
 Coeff-Com: -0.496D-01 0.108D+01
 Coeff:      0.531D-04 0.417D-04-0.712D-03 0.155D-02 0.296D-02-0.372D-01
 Coeff:     -0.496D-01 0.108D+01
 Gap=     0.277 Goal=   None    Shift=    0.000
 RMSDP=8.49D-07 MaxDP=3.62D-06 DE=-1.35D-09 OVMax= 0.00D+00

 Cycle   9  Pass 1  IDiag  1:
 E= -8.03203693192533     Delta-E=       -0.000000000042 Rises=F Damp=F
 DIIS: error= 7.35D-08 at cycle   9 NSaved=   9.
 NSaved= 9 IEnMin= 9 EnMin= -8.03203693192533     IErMin= 9 ErrMin= 7.35D-08
 ErrMax= 7.35D-08  0.00D+00 EMaxC= 1.00D-01 BMatC= 9.90D-14 BMatP= 7.16D-12
 IDIUse=1 WtCom= 1.00D+00 WtEn= 0.00D+00
 Coeff-Com:  0.437D-04-0.956D-04 0.687D-04-0.305D-03 0.636D-03 0.185D-02
 Coeff-Com: -0.355D-01 0.564D-01 0.977D+00
 Coeff:      0.437D-04-0.956D-04 0.687D-04-0.305D-03 0.636D-03 0.185D-02
 Coeff:     -0.355D-01 0.564D-01 0.977D+00
 Gap=     0.277 Goal=   None    Shift=    0.000
 RMSDP=1.12D-07 MaxDP=4.06D-07 DE=-4.20D-11 OVMax= 0.00D+00

 Cycle  10  Pass 1  IDiag  1:
 E= -8.03203693192571     Delta-E=       -0.000000000000 Rises=F Damp=F
 DIIS: error= 1.96D-08 at cycle  10 NSaved=  10.
 NSaved=10 IEnMin=10 EnMin= -8.03203693192571     IErMin=10 ErrMin= 1.96D-08
 ErrMax= 1.96D-08  0.00D+00 EMaxC= 1.00D-01 BMatC= 7.10D-15 BMatP= 9.90D-14
 IDIUse=1 WtCom= 1.00D+00 WtEn= 0.00D+00
 Coeff-Com: -0.163D-06-0.320D-05 0.202D-04-0.423D-04-0.214D-04 0.825D-03
 Coeff-Com: -0.117D-02-0.149D-01 0.426D-01 0.973D+00
 Coeff:     -0.163D-06-0.320D-05 0.202D-04-0.423D-04-0.214D-04 0.825D-03
 Coeff:     -0.117D-02-0.149D-01 0.426D-01 0.973D+00
 Gap=     0.277 Goal=   None    Shift=    0.000
 RMSDP=3.19D-08 MaxDP=1.02D-07 DE=-3.77D-13 OVMax= 0.00D+00

 Cycle  11  Pass 1  IDiag  1:
 E= -8.03203693192575     Delta-E=       -0.000000000000 Rises=F Damp=F
 DIIS: error= 2.34D-09 at cycle  11 NSaved=  11.
 NSaved=11 IEnMin=11 EnMin= -8.03203693192575     IErMin=11 ErrMin= 2.34D-09
 ErrMax= 2.34D-09  0.00D+00 EMaxC= 1.00D-01 BMatC= 6.62D-17 BMatP= 7.10D-15
 IDIUse=1 WtCom= 1.00D+00 WtEn= 0.00D+00
 Coeff-Com: -0.108D-05 0.252D-05-0.264D-05 0.908D-05-0.110D-04-0.713D-04
 Coeff-Com:  0.625D-03 0.850D-04-0.207D-01-0.439D-01 0.106D+01
 Coeff:     -0.108D-05 0.252D-05-0.264D-05 0.908D-05-0.110D-04-0.713D-04
 Coeff:      0.625D-03 0.850D-04-0.207D-01-0.439D-01 0.106D+01
 Gap=     0.277 Goal=   None    Shift=    0.000
 RMSDP=4.14D-09 MaxDP=1.33D-08 DE=-4.26D-14 OVMax= 0.00D+00

 SCF Done:  E(RHF) =  -8.03203693193     A.U. after   11 cycles
            NFock= 11  Conv=0.41D-08     -V/T= 1.8523
 KE= 9.424110937726D+00 PE=-5.186496355196D+01 EE= 1.761111530107D+01
 Leave Link  502 at Sun Dec  5 13:03:43 2021, MaxMem=   104857600 cpu:               0.1 elap:               0.2
 (Enter /usr/local/g16reva03/legacy_cpu/g16/l601.exe)
 Copying SCF densities to generalized density rwf, IOpCl= 0 IROHF=0.

 **********************************************************************

            Population analysis using the SCF density.

 **********************************************************************

 Alpha  occ. eigenvalues --   -0.59429  -0.57719  -0.54876  -0.50858  -0.45595
 Alpha  occ. eigenvalues --   -0.39012  -0.31093  -0.22348
 Alpha virt. eigenvalues --    0.05366   0.16421   0.28594   0.41080   0.53338
 Alpha virt. eigenvalues --    0.64604   0.73858   0.80002
          Condensed to atoms (all electrons):
               1          2          3          4          5          6
     1  H    0.758736   0.255987  -0.008402  -0.001611   0.000009   0.000001
     2  H    0.255987   0.689253   0.058444  -0.006644  -0.000295   0.000007
     3  H   -0.008402   0.058444   0.725975   0.233511  -0.007539  -0.001535
     4  H   -0.001611  -0.006644   0.233511   0.707557   0.073463  -0.007035
     5  H    0.000009  -0.000295  -0.007539   0.073463   0.717576   0.225530
     6  H    0.000001   0.000007  -0.001535  -0.007035   0.225530   0.711429
     7  H   -0.000000   0.000000   0.000008  -0.000373  -0.007322   0.078768
     8  H   -0.000000  -0.000000   0.000001   0.000007  -0.001503  -0.007153
     9  H    0.000000  -0.000000  -0.000000   0.000000   0.000008  -0.000400
    10  H    0.000000   0.000000  -0.000000  -0.000000   0.000001   0.000008
    11  H    0.000000   0.000000   0.000000  -0.000000  -0.000000   0.000000
    12  H    0.000000   0.000000   0.000000   0.000000  -0.000000  -0.000000
    13  H    0.000000   0.000000   0.000000   0.000000   0.000000  -0.000000
    14  H    0.000000   0.000000   0.000000   0.000000   0.000000   0.000000
    15  H    0.000000   0.000000   0.000000   0.000000   0.000000   0.000000
    16  H    0.000000   0.000000   0.000000   0.000000   0.000000   0.000000
               7          8          9         10         11         12
     1  H   -0.000000  -0.000000   0.000000   0.000000   0.000000   0.000000
     2  H    0.000000  -0.000000  -0.000000   0.000000   0.000000   0.000000
     3  H    0.000008   0.000001  -0.000000  -0.000000   0.000000   0.000000
     4  H   -0.000373   0.000007   0.000000  -0.000000  -0.000000   0.000000
     5  H   -0.007322  -0.001503   0.000008   0.000001  -0.000000  -0.000000
     6  H    0.078768  -0.007153  -0.000400   0.000008   0.000000  -0.000000
     7  H    0.714725   0.222756  -0.007226  -0.001495   0.000008   0.000001
     8  H    0.222756   0.713133   0.080173  -0.007226  -0.000400   0.000008
     9  H   -0.007226   0.080173   0.713133   0.222756  -0.007153  -0.001503
    10  H   -0.001495  -0.007226   0.222756   0.714725   0.078768  -0.007322
    11  H    0.000008  -0.000400  -0.007153   0.078768   0.711429   0.225530
    12  H    0.000001   0.000008  -0.001503  -0.007322   0.225530   0.717576
    13  H   -0.000000   0.000000   0.000007  -0.000373  -0.007035   0.073463
    14  H   -0.000000  -0.000000   0.000001   0.000008  -0.001535  -0.007539
    15  H    0.000000  -0.000000  -0.000000   0.000000   0.000007  -0.000295
    16  H    0.000000   0.000000  -0.000000  -0.000000   0.000001   0.000009
              13         14         15         16
     1  H    0.000000   0.000000   0.000000   0.000000
     2  H    0.000000   0.000000   0.000000   0.000000
     3  H    0.000000   0.000000   0.000000   0.000000
     4  H    0.000000   0.000000   0.000000   0.000000
     5  H    0.000000   0.000000   0.000000   0.000000
     6  H   -0.000000   0.000000   0.000000   0.000000
     7  H   -0.000000  -0.000000   0.000000   0.000000
     8  H    0.000000  -0.000000  -0.000000   0.000000
     9  H    0.000007   0.000001  -0.000000  -0.000000
    10  H   -0.000373   0.000008   0.000000  -0.000000
    11  H   -0.007035  -0.001535   0.000007   0.000001
    12  H    0.073463  -0.007539  -0.000295   0.000009
    13  H    0.707557   0.233511  -0.006644  -0.001611
    14  H    0.233511   0.725975   0.058444  -0.008402
    15  H   -0.006644   0.058444   0.689253   0.255987
    16  H   -0.001611  -0.008402   0.255987   0.758736
 Mulliken charges:
               1
     1  H   -0.004719
     2  H    0.003248
     3  H   -0.000463
     4  H    0.001125
     5  H    0.000073
     6  H    0.000380
     7  H    0.000150
     8  H    0.000205
     9  H    0.000205
    10  H    0.000150
    11  H    0.000380
    12  H    0.000073
    13  H    0.001125
    14  H   -0.000463
    15  H    0.003248
    16  H   -0.004719
 Sum of Mulliken charges =  -0.00000
 Mulliken charges with hydrogens summed into heavy atoms:
               1
 Electronic spatial extent (au):  <R**2>=           6407.6109
 Charge=             -0.0000 electrons
 Dipole moment (field-independent basis, Debye):
    X=              0.0000    Y=              0.0000    Z=             -0.0000  Tot=              0.0000
 Quadrupole moment (field-independent basis, Debye-Ang):
   XX=            -15.0946   YY=            -15.0946   ZZ=            -11.6650
   XY=              0.0000   XZ=              0.0000   YZ=              0.0000
 Traceless Quadrupole moment (field-independent basis, Debye-Ang):
   XX=             -1.1432   YY=             -1.1432   ZZ=              2.2864
   XY=              0.0000   XZ=              0.0000   YZ=              0.0000
 Octapole moment (field-independent basis, Debye-Ang**2):
  XXX=              0.0000  YYY=              0.0000  ZZZ=           -314.9543  XYY=              0.0000
  XXY=              0.0000  XXZ=           -135.8511  XZZ=              0.0000  YZZ=              0.0000
  YYZ=           -135.8511  XYZ=              0.0000
 Hexadecapole moment (field-independent basis, Debye-Ang**3):
 XXXX=            -12.6937 YYYY=            -12.6937 ZZZZ=          -7686.7309 XXXY=              0.0000
 XXXZ=              0.0000 YYYX=              0.0000 YYYZ=              0.0000 ZZZX=              0.0000
 ZZZY=              0.0000 XXYY=             -4.2312 XXZZ=          -1687.5621 YYZZ=          -1687.5621
 XXYZ=              0.0000 YYXZ=              0.0000 ZZXY=              0.0000
 N-N= 1.679770038124D+01 E-N=-5.186496355639D+01  KE= 9.424110937726D+00
 No NMR shielding tensors so no spin-rotation constants.
 Leave Link  601 at Sun Dec  5 13:03:43 2021, MaxMem=   104857600 cpu:               0.1 elap:               0.2
 (Enter /usr/local/g16reva03/legacy_cpu/g16/l9999.exe)
 1\1\GINC-USER1\SP\RHF\STO-3G\H16\MRAMIN02\05-Dec-2021\0\\#p rhf nosymm
  output=matrix int=noraf scf=conven\\h2-sto3g\\0,1\H\H,1,1.2\H,2,1.2,1
 ,180.\H,3,1.2,2,180.,1,0.,0\H,4,1.2,3,180.,1,0.,0\H,5,1.2,4,180.,1,0.,
 0\H,6,1.2,5,180.,1,0.,0\H,7,1.2,6,180.,1,0.,0\H,8,1.2,7,180.,1,0.,0\H,
 9,1.2,8,180.,1,0.,0\H,10,1.2,9,180.,1,0.,0\H,11,1.2,10,180.,1,0.,0\H,1
 2,1.2,11,180.,1,0.,0\H,13,1.2,12,180.,1,0.,0\H,14,1.2,13,180.,1,0.,0\H
 ,15,1.2,14,180.,1,0.,0\\Version=EM64L-G16RevA.03\HF=-8.0320369\RMSD=4.
 139e-09\Dipole=0.,0.,0.\Quadrupole=-0.8499403,-0.8499403,1.6998806,0.,
 0.,0.\PG=D*H [C*(H1H1H1H1H1H1H1H1.H1H1H1H1H1H1H1H1)]\\@


 IN THE WOODS WE RETURN TO REASON AND FAITH.

                                 -- EMERSON

 Writing WrtUnf unformatted file "h2-16.mat"
 Gaussian matrix elements                                         Version   2 NLab=11 Len12L=8 Len4L=8
 Write SHELL TO ATOM MAP                   from file     0 offset           0 length                  16 to matrix element file.
 Write SHELL TYPES                         from file     0 offset           0 length                  16 to matrix element file.
 Write NUMBER OF PRIMITIVES PER SHELL      from file     0 offset           0 length                  16 to matrix element file.
 Write PRIMITIVE EXPONENTS                 from file     0 offset           0 length                  48 to matrix element file.
 Write CONTRACTION COEFFICIENTS            from file     0 offset           0 length                  48 to matrix element file.
 Write P(S=P) CONTRACTION COEFFICIENTS     from file     0 offset           0 length                  48 to matrix element file.
 Write COORDINATES OF EACH SHELL           from file     0 offset           0 length                  48 to matrix element file.
 Write GAUSSIAN SCALARS                    from file   501 offset           0 to matrix element file.
 Write INTEGER ISO                         from file     0 offset           0 length                  16 to matrix element file.
 Write INTEGER SPIN                        from file     0 offset           0 length                  16 to matrix element file.
 Write REAL ZEFFECTIVE                     from file     0 offset           0 length                  16 to matrix element file.
 Write REAL GFACTOR                        from file     0 offset           0 length                  16 to matrix element file.
 Write REAL ZNUCLEAR                       from file     0 offset           0 length                  16 to matrix element file.
 Write NUCLEAR GRADIENT                    from file 10584 offset           0 length                  48 to matrix element file.
 Array NUCLEAR FORCE CONSTANTS              on  file 10585 does not exist.
 Write ELECTRIC DIPOLE MOMENT              from file     0 offset           0 length                   3 to matrix element file.
 Write OVERLAP                             from file   514 offset           0 length                 136 to matrix element file.
 Write CORE HAMILTONIAN ALPHA              from file   515 offset           0 length                 136 to matrix element file.
 Write CORE HAMILTONIAN BETA               from file   515 offset         136 length                 136 to matrix element file.
 Write KINETIC ENERGY                      from file   516 offset           0 length                 136 to matrix element file.
 Write ORTHOGONAL BASIS                    from file   685 offset           0 length                 256 to matrix element file.
 Write DIPOLE INTEGRALS                    from file   518 offset           0 length                 408 to matrix element file.
 Write DIP VEL INTEGRALS                   from file   572 offset           0 length                 408 to matrix element file.
 Write R X DEL INTEGRALS                   from file   572 offset         408 length                 408 to matrix element file.
 Write ALPHA ORBITAL ENERGIES              from file     0 offset           0 length                  16 to matrix element file.
 Write ALPHA MO COEFFICIENTS               from file 10524 offset           0 length                 256 to matrix element file.
 Write ALPHA DENSITY MATRIX                from file 10528 offset           0 length                 136 to matrix element file.
 Write ALPHA SCF DENSITY MATRIX            from file 10528 offset           0 length                 136 to matrix element file.
 Write ALPHA FOCK MATRIX                   from file 10536 offset           0 length                 136 to matrix element file.
 Write REGULAR 2E INTEGRALS                to matrix element file, NR=1 ITotal=        3621.
 Job cpu time:       0 days  0 hours  0 minutes  3.1 seconds.
 Elapsed time:       0 days  0 hours  0 minutes  4.2 seconds.
 File lengths (MBytes):  RWF=     72 Int=      4 D2E=      0 Chk=      8 Scr=      8
 Normal termination of Gaussian 16 at Sun Dec  5 13:03:44 2021.
