 Entering Gaussian System, Link 0=g16
 Input=h2-32.com
 Output=h2-32.log
 Initial command:
 /usr/local/g16reva03/legacy_cpu/g16/l1.exe "/scratch/global/g16/Gau-10483.inp" -scrdir="/scratch/global/g16/"
 Entering Link 1 = /usr/local/g16reva03/legacy_cpu/g16/l1.exe PID=     10484.
  
 Copyright (c) 1988,1990,1992,1993,1995,1998,2003,2009,2016,
            Gaussian, Inc.  All Rights Reserved.
  
 This is part of the Gaussian(R) 16 program.  It is based on
 the Gaussian(R) 09 system (copyright 2009, Gaussian, Inc.),
 the Gaussian(R) 03 system (copyright 2003, Gaussian, Inc.),
 the Gaussian(R) 98 system (copyright 1998, Gaussian, Inc.),
 the Gaussian(R) 94 system (copyright 1995, Gaussian, Inc.),
 the Gaussian 92(TM) system (copyright 1992, Gaussian, Inc.),
 the Gaussian 90(TM) system (copyright 1990, Gaussian, Inc.),
 the Gaussian 88(TM) system (copyright 1988, Gaussian, Inc.),
 the Gaussian 86(TM) system (copyright 1986, Carnegie Mellon
 University), and the Gaussian 82(TM) system (copyright 1983,
 Carnegie Mellon University). Gaussian is a federally registered
 trademark of Gaussian, Inc.
  
 This software contains proprietary and confidential information,
 including trade secrets, belonging to Gaussian, Inc.
  
 This software is provided under written license and may be
 used, copied, transmitted, or stored only in accord with that
 written license.
  
 The following legend is applicable only to US Government
 contracts under FAR:
  
                    RESTRICTED RIGHTS LEGEND
  
 Use, reproduction and disclosure by the US Government is
 subject to restrictions as set forth in subparagraphs (a)
 and (c) of the Commercial Computer Software - Restricted
 Rights clause in FAR 52.227-19.
  
 Gaussian, Inc.
 340 Quinnipiac St., Bldg. 40, Wallingford CT 06492
  
  
 ---------------------------------------------------------------
 Warning -- This program may not be used in any manner that
 competes with the business of Gaussian, Inc. or will provide
 assistance to any competitor of Gaussian, Inc.  The licensee
 of this program is prohibited from giving any competitor of
 Gaussian, Inc. access to this program.  By using this program,
 the user acknowledges that Gaussian, Inc. is engaged in the
 business of creating and licensing software in the field of
 computational chemistry and represents and warrants to the
 licensee that it is not a competitor of Gaussian, Inc. and that
 it will not use this program in any manner prohibited above.
 ---------------------------------------------------------------
  

 Cite this work as:
 Gaussian 16, Revision A.03,
 M. J. Frisch, G. W. Trucks, H. B. Schlegel, G. E. Scuseria, 
 M. A. Robb, J. R. Cheeseman, G. Scalmani, V. Barone, 
 G. A. Petersson, H. Nakatsuji, X. Li, M. Caricato, A. V. Marenich, 
 J. Bloino, B. G. Janesko, R. Gomperts, B. Mennucci, H. P. Hratchian, 
 J. V. Ortiz, A. F. Izmaylov, J. L. Sonnenberg, D. Williams-Young, 
 F. Ding, F. Lipparini, F. Egidi, J. Goings, B. Peng, A. Petrone, 
 T. Henderson, D. Ranasinghe, V. G. Zakrzewski, J. Gao, N. Rega, 
 G. Zheng, W. Liang, M. Hada, M. Ehara, K. Toyota, R. Fukuda, 
 J. Hasegawa, M. Ishida, T. Nakajima, Y. Honda, O. Kitao, H. Nakai, 
 T. Vreven, K. Throssell, J. A. Montgomery, Jr., J. E. Peralta, 
 F. Ogliaro, M. J. Bearpark, J. J. Heyd, E. N. Brothers, K. N. Kudin, 
 V. N. Staroverov, T. A. Keith, R. Kobayashi, J. Normand, 
 K. Raghavachari, A. P. Rendell, J. C. Burant, S. S. Iyengar, 
 J. Tomasi, M. Cossi, J. M. Millam, M. Klene, C. Adamo, R. Cammi, 
 J. W. Ochterski, R. L. Martin, K. Morokuma, O. Farkas, 
 J. B. Foresman, and D. J. Fox, Gaussian, Inc., Wallingford CT, 2016.
 
 ******************************************
 Gaussian 16:  EM64L-G16RevA.03 25-Dec-2016
                 5-Dec-2021 
 ******************************************
 ------------------------------------------------
 #p rhf nosymm output=matrix int=noraf scf=conven
 ------------------------------------------------
 1/38=1,172=1/1;
 2/12=2,15=1,17=6,18=5,40=1/2;
 3/25=20,28=1,30=1,116=1/1,2,3,8,20;
 4//1;
 5/5=1,29=1/2;
 6/7=2,8=2,9=2,10=2,28=1/1;
 99/5=1,6=100000,9=1/99;
 Leave Link    1 at Sun Dec  5 13:08:57 2021, MaxMem=           0 cpu:               0.1 elap:               0.3
 (Enter /usr/local/g16reva03/legacy_cpu/g16/l101.exe)
 --------
 h2-sto3g
 --------
 Symbolic Z-matrix:
 Charge =  0 Multiplicity = 1
 H
 H                    1     1.2 
 H                    2     1.2      1     180. 
 H                    3     1.2      2     180.     1     0.       0
 H                    4     1.2      3     180.     1     0.       0
 H                    5     1.2      4     180.     1     0.       0
 H                    6     1.2      5     180.     1     0.       0
 H                    7     1.2      6     180.     1     0.       0
 H                    8     1.2      7     180.     1     0.       0
 H                    9     1.2      8     180.     1     0.       0
 H                    10    1.2      9     180.     1     0.       0
 H                    11    1.2      10    180.     1     0.       0
 H                    12    1.2      11    180.     1     0.       0
 H                    13    1.2      12    180.     1     0.       0
 H                    14    1.2      13    180.     1     0.       0
 H                    15    1.2      14    180.     1     0.       0
 H                    16    1.2      15    180.     1     0.       0
 H                    17    1.2      16    180.     1     0.       0
 H                    18    1.2      17    180.     1     0.       0
 H                    19    1.2      18    180.     1     0.       0
 H                    20    1.2      19    180.     1     0.       0
 H                    21    1.2      20    180.     1     0.       0
 H                    22    1.2      21    180.     1     0.       0
 H                    23    1.2      22    180.     1     0.       0
 H                    24    1.2      23    180.     1     0.       0
 H                    25    1.2      24    180.     1     0.       0
 H                    26    1.2      25    180.     1     0.       0
 H                    27    1.2      26    180.     1     0.       0
 H                    28    1.2      27    180.     1     0.       0
 H                    29    1.2      28    180.     1     0.       0
 H                    30    1.2      29    180.     1     0.       0
 H                    31    1.2      30    180.     1     0.       0
 
 ITRead=  0  0  0  0  0  0  0  0  0  0  0  0  0  0  0  0  0  0  0  0
 ITRead=  0  0  0  0  0  0  0  0  0  0  0  0
 MicOpt= -1 -1 -1 -1 -1 -1 -1 -1 -1 -1 -1 -1 -1 -1 -1 -1 -1 -1 -1 -1
 MicOpt= -1 -1 -1 -1 -1 -1 -1 -1 -1 -1 -1 -1
 NAtoms=     32 NQM=       32 NQMF=       0 NMMI=      0 NMMIF=      0
                NMic=       0 NMicF=      0.
                    Isotopes and Nuclear Properties:
 (Nuclear quadrupole moments (NQMom) in fm**2, nuclear magnetic moments (NMagM)
  in nuclear magnetons)

  Atom         1           2           3           4           5           6           7           8           9          10
 IAtWgt=           1           1           1           1           1           1           1           1           1           1
 AtmWgt=   1.0078250   1.0078250   1.0078250   1.0078250   1.0078250   1.0078250   1.0078250   1.0078250   1.0078250   1.0078250
 NucSpn=           1           1           1           1           1           1           1           1           1           1
 AtZEff=  -0.0000000  -0.0000000  -0.0000000  -0.0000000  -0.0000000  -0.0000000  -0.0000000  -0.0000000  -0.0000000  -0.0000000
 NQMom=    0.0000000   0.0000000   0.0000000   0.0000000   0.0000000   0.0000000   0.0000000   0.0000000   0.0000000   0.0000000
 NMagM=    2.7928460   2.7928460   2.7928460   2.7928460   2.7928460   2.7928460   2.7928460   2.7928460   2.7928460   2.7928460
 AtZNuc=   1.0000000   1.0000000   1.0000000   1.0000000   1.0000000   1.0000000   1.0000000   1.0000000   1.0000000   1.0000000

  Atom        11          12          13          14          15          16          17          18          19          20
 IAtWgt=           1           1           1           1           1           1           1           1           1           1
 AtmWgt=   1.0078250   1.0078250   1.0078250   1.0078250   1.0078250   1.0078250   1.0078250   1.0078250   1.0078250   1.0078250
 NucSpn=           1           1           1           1           1           1           1           1           1           1
 AtZEff=  -0.0000000  -0.0000000  -0.0000000  -0.0000000  -0.0000000  -0.0000000  -0.0000000  -0.0000000  -0.0000000  -0.0000000
 NQMom=    0.0000000   0.0000000   0.0000000   0.0000000   0.0000000   0.0000000   0.0000000   0.0000000   0.0000000   0.0000000
 NMagM=    2.7928460   2.7928460   2.7928460   2.7928460   2.7928460   2.7928460   2.7928460   2.7928460   2.7928460   2.7928460
 AtZNuc=   1.0000000   1.0000000   1.0000000   1.0000000   1.0000000   1.0000000   1.0000000   1.0000000   1.0000000   1.0000000

  Atom        21          22          23          24          25          26          27          28          29          30
 IAtWgt=           1           1           1           1           1           1           1           1           1           1
 AtmWgt=   1.0078250   1.0078250   1.0078250   1.0078250   1.0078250   1.0078250   1.0078250   1.0078250   1.0078250   1.0078250
 NucSpn=           1           1           1           1           1           1           1           1           1           1
 AtZEff=  -0.0000000  -0.0000000  -0.0000000  -0.0000000  -0.0000000  -0.0000000  -0.0000000  -0.0000000  -0.0000000  -0.0000000
 NQMom=    0.0000000   0.0000000   0.0000000   0.0000000   0.0000000   0.0000000   0.0000000   0.0000000   0.0000000   0.0000000
 NMagM=    2.7928460   2.7928460   2.7928460   2.7928460   2.7928460   2.7928460   2.7928460   2.7928460   2.7928460   2.7928460
 AtZNuc=   1.0000000   1.0000000   1.0000000   1.0000000   1.0000000   1.0000000   1.0000000   1.0000000   1.0000000   1.0000000

  Atom        31          32
 IAtWgt=           1           1
 AtmWgt=   1.0078250   1.0078250
 NucSpn=           1           1
 AtZEff=  -0.0000000  -0.0000000
 NQMom=    0.0000000   0.0000000
 NMagM=    2.7928460   2.7928460
 AtZNuc=   1.0000000   1.0000000
 Leave Link  101 at Sun Dec  5 13:08:57 2021, MaxMem=   104857600 cpu:               0.2 elap:               0.2
 (Enter /usr/local/g16reva03/legacy_cpu/g16/l202.exe)
                          Input orientation:                          
 ---------------------------------------------------------------------
 Center     Atomic      Atomic             Coordinates (Angstroms)
 Number     Number       Type             X           Y           Z
 ---------------------------------------------------------------------
      1          1           0        0.000000    0.000000    0.000000
      2          1           0        0.000000    0.000000    1.200000
      3          1           0        0.000000    0.000000    2.400000
      4          1           0        0.000000    0.000000    3.600000
      5          1           0        0.000000    0.000000    4.800000
      6          1           0        0.000000    0.000000    6.000000
      7          1           0        0.000000    0.000000    7.200000
      8          1           0        0.000000    0.000000    8.400000
      9          1           0        0.000000    0.000000    9.600000
     10          1           0        0.000000    0.000000   10.800000
     11          1           0        0.000000    0.000000   12.000000
     12          1           0        0.000000    0.000000   13.200000
     13          1           0        0.000000    0.000000   14.400000
     14          1           0        0.000000    0.000000   15.600000
     15          1           0        0.000000    0.000000   16.800000
     16          1           0        0.000000    0.000000   18.000000
     17          1           0        0.000000    0.000000   19.200000
     18          1           0        0.000000    0.000000   20.400000
     19          1           0        0.000000    0.000000   21.600000
     20          1           0        0.000000    0.000000   22.800000
     21          1           0        0.000000    0.000000   24.000000
     22          1           0        0.000000    0.000000   25.200000
     23          1           0        0.000000    0.000000   26.400000
     24          1           0        0.000000    0.000000   27.600000
     25          1           0        0.000000    0.000000   28.800000
     26          1           0        0.000000    0.000000   30.000000
     27          1           0        0.000000    0.000000   31.200000
     28          1           0        0.000000    0.000000   32.400000
     29          1           0        0.000000    0.000000   33.600000
     30          1           0        0.000000    0.000000   34.800000
     31          1           0        0.000000    0.000000   36.000000
     32          1           0        0.000000    0.000000   37.200000
 ---------------------------------------------------------------------
                    Distance matrix (angstroms):
                    1          2          3          4          5
     1  H    0.000000
     2  H    1.200000   0.000000
     3  H    2.400000   1.200000   0.000000
     4  H    3.600000   2.400000   1.200000   0.000000
     5  H    4.800000   3.600000   2.400000   1.200000   0.000000
     6  H    6.000000   4.800000   3.600000   2.400000   1.200000
     7  H    7.200000   6.000000   4.800000   3.600000   2.400000
     8  H    8.400000   7.200000   6.000000   4.800000   3.600000
     9  H    9.600000   8.400000   7.200000   6.000000   4.800000
    10  H   10.800000   9.600000   8.400000   7.200000   6.000000
    11  H   12.000000  10.800000   9.600000   8.400000   7.200000
    12  H   13.200000  12.000000  10.800000   9.600000   8.400000
    13  H   14.400000  13.200000  12.000000  10.800000   9.600000
    14  H   15.600000  14.400000  13.200000  12.000000  10.800000
    15  H   16.800000  15.600000  14.400000  13.200000  12.000000
    16  H   18.000000  16.800000  15.600000  14.400000  13.200000
    17  H   19.200000  18.000000  16.800000  15.600000  14.400000
    18  H   20.400000  19.200000  18.000000  16.800000  15.600000
    19  H   21.600000  20.400000  19.200000  18.000000  16.800000
    20  H   22.800000  21.600000  20.400000  19.200000  18.000000
    21  H   24.000000  22.800000  21.600000  20.400000  19.200000
    22  H   25.200000  24.000000  22.800000  21.600000  20.400000
    23  H   26.400000  25.200000  24.000000  22.800000  21.600000
    24  H   27.600000  26.400000  25.200000  24.000000  22.800000
    25  H   28.800000  27.600000  26.400000  25.200000  24.000000
    26  H   30.000000  28.800000  27.600000  26.400000  25.200000
    27  H   31.200000  30.000000  28.800000  27.600000  26.400000
    28  H   32.400000  31.200000  30.000000  28.800000  27.600000
    29  H   33.600000  32.400000  31.200000  30.000000  28.800000
    30  H   34.800000  33.600000  32.400000  31.200000  30.000000
    31  H   36.000000  34.800000  33.600000  32.400000  31.200000
    32  H   37.200000  36.000000  34.800000  33.600000  32.400000
                    6          7          8          9         10
     6  H    0.000000
     7  H    1.200000   0.000000
     8  H    2.400000   1.200000   0.000000
     9  H    3.600000   2.400000   1.200000   0.000000
    10  H    4.800000   3.600000   2.400000   1.200000   0.000000
    11  H    6.000000   4.800000   3.600000   2.400000   1.200000
    12  H    7.200000   6.000000   4.800000   3.600000   2.400000
    13  H    8.400000   7.200000   6.000000   4.800000   3.600000
    14  H    9.600000   8.400000   7.200000   6.000000   4.800000
    15  H   10.800000   9.600000   8.400000   7.200000   6.000000
    16  H   12.000000  10.800000   9.600000   8.400000   7.200000
    17  H   13.200000  12.000000  10.800000   9.600000   8.400000
    18  H   14.400000  13.200000  12.000000  10.800000   9.600000
    19  H   15.600000  14.400000  13.200000  12.000000  10.800000
    20  H   16.800000  15.600000  14.400000  13.200000  12.000000
    21  H   18.000000  16.800000  15.600000  14.400000  13.200000
    22  H   19.200000  18.000000  16.800000  15.600000  14.400000
    23  H   20.400000  19.200000  18.000000  16.800000  15.600000
    24  H   21.600000  20.400000  19.200000  18.000000  16.800000
    25  H   22.800000  21.600000  20.400000  19.200000  18.000000
    26  H   24.000000  22.800000  21.600000  20.400000  19.200000
    27  H   25.200000  24.000000  22.800000  21.600000  20.400000
    28  H   26.400000  25.200000  24.000000  22.800000  21.600000
    29  H   27.600000  26.400000  25.200000  24.000000  22.800000
    30  H   28.800000  27.600000  26.400000  25.200000  24.000000
    31  H   30.000000  28.800000  27.600000  26.400000  25.200000
    32  H   31.200000  30.000000  28.800000  27.600000  26.400000
                   11         12         13         14         15
    11  H    0.000000
    12  H    1.200000   0.000000
    13  H    2.400000   1.200000   0.000000
    14  H    3.600000   2.400000   1.200000   0.000000
    15  H    4.800000   3.600000   2.400000   1.200000   0.000000
    16  H    6.000000   4.800000   3.600000   2.400000   1.200000
    17  H    7.200000   6.000000   4.800000   3.600000   2.400000
    18  H    8.400000   7.200000   6.000000   4.800000   3.600000
    19  H    9.600000   8.400000   7.200000   6.000000   4.800000
    20  H   10.800000   9.600000   8.400000   7.200000   6.000000
    21  H   12.000000  10.800000   9.600000   8.400000   7.200000
    22  H   13.200000  12.000000  10.800000   9.600000   8.400000
    23  H   14.400000  13.200000  12.000000  10.800000   9.600000
    24  H   15.600000  14.400000  13.200000  12.000000  10.800000
    25  H   16.800000  15.600000  14.400000  13.200000  12.000000
    26  H   18.000000  16.800000  15.600000  14.400000  13.200000
    27  H   19.200000  18.000000  16.800000  15.600000  14.400000
    28  H   20.400000  19.200000  18.000000  16.800000  15.600000
    29  H   21.600000  20.400000  19.200000  18.000000  16.800000
    30  H   22.800000  21.600000  20.400000  19.200000  18.000000
    31  H   24.000000  22.800000  21.600000  20.400000  19.200000
    32  H   25.200000  24.000000  22.800000  21.600000  20.400000
                   16         17         18         19         20
    16  H    0.000000
    17  H    1.200000   0.000000
    18  H    2.400000   1.200000   0.000000
    19  H    3.600000   2.400000   1.200000   0.000000
    20  H    4.800000   3.600000   2.400000   1.200000   0.000000
    21  H    6.000000   4.800000   3.600000   2.400000   1.200000
    22  H    7.200000   6.000000   4.800000   3.600000   2.400000
    23  H    8.400000   7.200000   6.000000   4.800000   3.600000
    24  H    9.600000   8.400000   7.200000   6.000000   4.800000
    25  H   10.800000   9.600000   8.400000   7.200000   6.000000
    26  H   12.000000  10.800000   9.600000   8.400000   7.200000
    27  H   13.200000  12.000000  10.800000   9.600000   8.400000
    28  H   14.400000  13.200000  12.000000  10.800000   9.600000
    29  H   15.600000  14.400000  13.200000  12.000000  10.800000
    30  H   16.800000  15.600000  14.400000  13.200000  12.000000
    31  H   18.000000  16.800000  15.600000  14.400000  13.200000
    32  H   19.200000  18.000000  16.800000  15.600000  14.400000
                   21         22         23         24         25
    21  H    0.000000
    22  H    1.200000   0.000000
    23  H    2.400000   1.200000   0.000000
    24  H    3.600000   2.400000   1.200000   0.000000
    25  H    4.800000   3.600000   2.400000   1.200000   0.000000
    26  H    6.000000   4.800000   3.600000   2.400000   1.200000
    27  H    7.200000   6.000000   4.800000   3.600000   2.400000
    28  H    8.400000   7.200000   6.000000   4.800000   3.600000
    29  H    9.600000   8.400000   7.200000   6.000000   4.800000
    30  H   10.800000   9.600000   8.400000   7.200000   6.000000
    31  H   12.000000  10.800000   9.600000   8.400000   7.200000
    32  H   13.200000  12.000000  10.800000   9.600000   8.400000
                   26         27         28         29         30
    26  H    0.000000
    27  H    1.200000   0.000000
    28  H    2.400000   1.200000   0.000000
    29  H    3.600000   2.400000   1.200000   0.000000
    30  H    4.800000   3.600000   2.400000   1.200000   0.000000
    31  H    6.000000   4.800000   3.600000   2.400000   1.200000
    32  H    7.200000   6.000000   4.800000   3.600000   2.400000
                   31         32
    31  H    0.000000
    32  H    1.200000   0.000000
 Symmetry turned off by external request.
 Stoichiometry    H32
 Framework group  D*H[C*(HHHHHHHHHHHHHHHH.HHHHHHHHHHHHHHHH)]
 Deg. of freedom    16
 Full point group                 D*H     NOp   8
 Rotational constants (GHZ):           0.0000000           0.1276513           0.1276513
 Leave Link  202 at Sun Dec  5 13:08:57 2021, MaxMem=   104857600 cpu:               0.1 elap:               0.2
 (Enter /usr/local/g16reva03/legacy_cpu/g16/l301.exe)
 Standard basis: STO-3G (5D, 7F)
 Ernie: Thresh=  0.10000D-02 Tol=  0.10000D-05 Strict=F.
    32 basis functions,    96 primitive gaussians,    32 cartesian basis functions
    16 alpha electrons       16 beta electrons
       nuclear repulsion energy        43.1596255236 Hartrees.
 IExCor=    0 DFT=F Ex=HF Corr=None ExCW=0 ScaHFX=  1.000000
 ScaDFX=  1.000000  1.000000  1.000000  1.000000 ScalE2=  1.000000  1.000000
 IRadAn=      5 IRanWt=     -1 IRanGd=            0 ICorTp=0 IEmpDi=  4
 NAtoms=   32 NActive=   32 NUniq=   32 SFac= 1.00D+00 NAtFMM=   60 NAOKFM=F Big=F
 Integral buffers will be    131072 words long.
 Regular integral format.
 Two-electron integral symmetry is turned off.
 Leave Link  301 at Sun Dec  5 13:08:57 2021, MaxMem=   104857600 cpu:               0.1 elap:               0.2
 (Enter /usr/local/g16reva03/legacy_cpu/g16/l302.exe)
 NPDir=0 NMtPBC=     1 NCelOv=     1 NCel=       1 NClECP=     1 NCelD=      1
         NCelK=      1 NCelE2=     1 NClLst=     1 CellRange=     0.0.
 One-electron integrals computed using PRISM.
 NBasis=    32 RedAO= T EigKep=  3.38D-01  NBF=    32
 NBsUse=    32 1.00D-06 EigRej= -1.00D+00 NBFU=    32
 Leave Link  302 at Sun Dec  5 13:08:58 2021, MaxMem=   104857600 cpu:               0.1 elap:               0.2
 (Enter /usr/local/g16reva03/legacy_cpu/g16/l303.exe)
 DipDrv:  MaxL=1.
 Leave Link  303 at Sun Dec  5 13:08:58 2021, MaxMem=   104857600 cpu:               0.1 elap:               0.1
 (Enter /usr/local/g16reva03/legacy_cpu/g16/l308.exe)
 Leave Link  308 at Sun Dec  5 13:08:58 2021, MaxMem=   104857600 cpu:               0.1 elap:               0.1
 (Enter /usr/local/g16reva03/legacy_cpu/g16/l320.exe)
 Enter DskPsm, NBasis=  32 NBas6D=  32 NShell=  32 IDoSP=4.
 Out2e will use a cutoff of  1.00D-10
 FoFCou: FMM=F IPFlag=           0 FMFlag=           0 FMFlg1=           0
         NFxFlg=           0 DoJE=F BraDBF=F KetDBF=F FulRan=T
         wScrn=  0.000000 ICntrl=       600 IOpCl=  9 I1Cent=           0 NGrid=           0
         NMat0=    0 NMatS0=      0 NMatT0=    0 NMatD0=    0 NMtDS0=    0 NMtDT0=    0
 Symmetry not used in FoFCou.
        16813 integrals produced for a total of        16813.
 Leave Link  320 at Sun Dec  5 13:08:58 2021, MaxMem=   104857600 cpu:               0.1 elap:               0.1
 (Enter /usr/local/g16reva03/legacy_cpu/g16/l401.exe)
 ExpMin= 1.69D-01 ExpMax= 3.43D+00 ExpMxC= 3.43D+00 IAcc=3 IRadAn=         5 AccDes= 0.00D+00
 Harris functional with IExCor=  205 and IRadAn=       5 diagonalized for initial guess.
 HarFok:  IExCor=  205 AccDes= 0.00D+00 IRadAn=         5 IDoV= 1 UseB2=F ITyADJ=14
 ICtDFT=  3500011 ScaDFX=  1.000000  1.000000  1.000000  1.000000
 FoFCou: FMM=F IPFlag=           0 FMFlag=      100000 FMFlg1=           0
         NFxFlg=           0 DoJE=T BraDBF=F KetDBF=T FulRan=T
         wScrn=  0.000000 ICntrl=       500 IOpCl=  0 I1Cent=   200000004 NGrid=           0
         NMat0=    1 NMatS0=      1 NMatT0=    0 NMatD0=    1 NMtDS0=    0 NMtDT0=    0
 Symmetry not used in FoFCou.
 Harris En= -17.6634721368341    
 JPrj=0 DoOrth=F DoCkMO=F.
 Leave Link  401 at Sun Dec  5 13:09:02 2021, MaxMem=   104857600 cpu:               3.6 elap:               3.8
 (Enter /usr/local/g16reva03/legacy_cpu/g16/l502.exe)
 Two-electron integral symmetry not used.
 Closed shell SCF:
 Using DIIS extrapolation, IDIIS=  1040.
 Unsorted integral processing.
 NGot=   104857600 LenX=   104592084 LenY=   104590619
 Requested convergence on RMS density matrix=1.00D-08 within 128 cycles.
 Requested convergence on MAX density matrix=1.00D-06.
 Requested convergence on             energy=1.00D-06.
 No special actions if energy rises.

 Cycle   1  Pass 1  IDiag  1:
 E= -16.0323638359747    
 DIIS: error= 9.17D-03 at cycle   1 NSaved=   1.
 NSaved= 1 IEnMin= 1 EnMin= -16.0323638359747     IErMin= 1 ErrMin= 9.17D-03
 ErrMax= 9.17D-03  0.00D+00 EMaxC= 1.00D-01 BMatC= 3.13D-03 BMatP= 3.13D-03
 IDIUse=3 WtCom= 9.08D-01 WtEn= 9.17D-02
 Coeff-Com:  0.100D+01
 Coeff-En:   0.100D+01
 Coeff:      0.100D+01
 Gap=     0.132 Goal=   None    Shift=    0.000
 GapD=    0.132 DampG=1.000 DampE=1.000 DampFc=1.0000 IDamp=-1.
 RMSDP=7.42D-03 MaxDP=2.69D-02              OVMax= 0.00D+00

 Cycle   2  Pass 1  IDiag  1:
 E= -16.0567389546245     Delta-E=       -0.024375118650 Rises=F Damp=F
 DIIS: error= 6.14D-03 at cycle   2 NSaved=   2.
 NSaved= 2 IEnMin= 2 EnMin= -16.0567389546245     IErMin= 2 ErrMin= 6.14D-03
 ErrMax= 6.14D-03  0.00D+00 EMaxC= 1.00D-01 BMatC= 1.40D-03 BMatP= 3.13D-03
 IDIUse=3 WtCom= 9.39D-01 WtEn= 6.14D-02
 Coeff-Com: -0.466D+00 0.147D+01
 Coeff-En:   0.000D+00 0.100D+01
 Coeff:     -0.438D+00 0.144D+01
 Gap=     0.166 Goal=   None    Shift=    0.000
 RMSDP=6.95D-03 MaxDP=2.27D-02 DE=-2.44D-02 OVMax= 0.00D+00

 Cycle   3  Pass 1  IDiag  1:
 E= -16.0709128748395     Delta-E=       -0.014173920215 Rises=F Damp=F
 DIIS: error= 3.31D-03 at cycle   3 NSaved=   3.
 NSaved= 3 IEnMin= 3 EnMin= -16.0709128748395     IErMin= 3 ErrMin= 3.31D-03
 ErrMax= 3.31D-03  0.00D+00 EMaxC= 1.00D-01 BMatC= 4.49D-04 BMatP= 1.40D-03
 IDIUse=3 WtCom= 9.67D-01 WtEn= 3.31D-02
 Coeff-Com:  0.355D-01-0.842D+00 0.181D+01
 Coeff-En:   0.000D+00 0.000D+00 0.100D+01
 Coeff:      0.343D-01-0.814D+00 0.178D+01
 Gap=     0.200 Goal=   None    Shift=    0.000
 RMSDP=5.76D-03 MaxDP=2.19D-02 DE=-1.42D-02 OVMax= 0.00D+00

 Cycle   4  Pass 1  IDiag  1:
 E= -16.0762312623536     Delta-E=       -0.005318387514 Rises=F Damp=F
 DIIS: error= 7.95D-04 at cycle   4 NSaved=   4.
 NSaved= 4 IEnMin= 4 EnMin= -16.0762312623536     IErMin= 4 ErrMin= 7.95D-04
 ErrMax= 7.95D-04  0.00D+00 EMaxC= 1.00D-01 BMatC= 3.91D-05 BMatP= 4.49D-04
 IDIUse=3 WtCom= 9.92D-01 WtEn= 7.95D-03
 Coeff-Com:  0.891D-01 0.221D+00-0.853D+00 0.154D+01
 Coeff-En:   0.000D+00 0.000D+00 0.000D+00 0.100D+01
 Coeff:      0.884D-01 0.219D+00-0.847D+00 0.154D+01
 Gap=     0.206 Goal=   None    Shift=    0.000
 RMSDP=1.03D-03 MaxDP=5.50D-03 DE=-5.32D-03 OVMax= 0.00D+00

 Cycle   5  Pass 1  IDiag  1:
 E= -16.0765309403836     Delta-E=       -0.000299678030 Rises=F Damp=F
 DIIS: error= 3.56D-04 at cycle   5 NSaved=   5.
 NSaved= 5 IEnMin= 5 EnMin= -16.0765309403836     IErMin= 5 ErrMin= 3.56D-04
 ErrMax= 3.56D-04  0.00D+00 EMaxC= 1.00D-01 BMatC= 4.06D-06 BMatP= 3.91D-05
 IDIUse=3 WtCom= 9.96D-01 WtEn= 3.56D-03
 Coeff-Com: -0.791D-02-0.153D-01-0.144D-01-0.215D+00 0.125D+01
 Coeff-En:   0.000D+00 0.000D+00 0.000D+00 0.000D+00 0.100D+01
 Coeff:     -0.788D-02-0.152D-01-0.144D-01-0.215D+00 0.125D+01
 Gap=     0.211 Goal=   None    Shift=    0.000
 RMSDP=6.40D-04 MaxDP=3.05D-03 DE=-3.00D-04 OVMax= 0.00D+00

 Cycle   6  Pass 1  IDiag  1:
 E= -16.0765754284281     Delta-E=       -0.000044488044 Rises=F Damp=F
 DIIS: error= 5.66D-05 at cycle   6 NSaved=   6.
 NSaved= 6 IEnMin= 6 EnMin= -16.0765754284281     IErMin= 6 ErrMin= 5.66D-05
 ErrMax= 5.66D-05  0.00D+00 EMaxC= 1.00D-01 BMatC= 1.36D-07 BMatP= 4.06D-06
 IDIUse=1 WtCom= 1.00D+00 WtEn= 0.00D+00
 Coeff-Com: -0.667D-02-0.155D-01 0.816D-01-0.113D+00-0.117D+00 0.117D+01
 Coeff:     -0.667D-02-0.155D-01 0.816D-01-0.113D+00-0.117D+00 0.117D+01
 Gap=     0.211 Goal=   None    Shift=    0.000
 RMSDP=4.38D-05 MaxDP=2.56D-04 DE=-4.45D-05 OVMax= 0.00D+00

 Cycle   7  Pass 1  IDiag  1:
 E= -16.0765761747264     Delta-E=       -0.000000746298 Rises=F Damp=F
 DIIS: error= 1.51D-05 at cycle   7 NSaved=   7.
 NSaved= 7 IEnMin= 7 EnMin= -16.0765761747264     IErMin= 7 ErrMin= 1.51D-05
 ErrMax= 1.51D-05  0.00D+00 EMaxC= 1.00D-01 BMatC= 1.09D-08 BMatP= 1.36D-07
 IDIUse=1 WtCom= 1.00D+00 WtEn= 0.00D+00
 Coeff-Com:  0.153D-02 0.604D-02-0.145D-01 0.350D-01-0.491D-01-0.246D+00
 Coeff-Com:  0.127D+01
 Coeff:      0.153D-02 0.604D-02-0.145D-01 0.350D-01-0.491D-01-0.246D+00
 Coeff:      0.127D+01
 Gap=     0.210 Goal=   None    Shift=    0.000
 RMSDP=3.12D-05 MaxDP=1.45D-04 DE=-7.46D-07 OVMax= 0.00D+00

 Cycle   8  Pass 1  IDiag  1:
 E= -16.0765762427854     Delta-E=       -0.000000068059 Rises=F Damp=F
 DIIS: error= 6.27D-06 at cycle   8 NSaved=   8.
 NSaved= 8 IEnMin= 8 EnMin= -16.0765762427854     IErMin= 8 ErrMin= 6.27D-06
 ErrMax= 6.27D-06  0.00D+00 EMaxC= 1.00D-01 BMatC= 1.56D-09 BMatP= 1.09D-08
 IDIUse=1 WtCom= 1.00D+00 WtEn= 0.00D+00
 Coeff-Com:  0.224D-03 0.401D-03-0.435D-02 0.414D-02 0.265D-02-0.612D-01
 Coeff-Com:  0.259D-01 0.103D+01
 Coeff:      0.224D-03 0.401D-03-0.435D-02 0.414D-02 0.265D-02-0.612D-01
 Coeff:      0.259D-01 0.103D+01
 Gap=     0.210 Goal=   None    Shift=    0.000
 RMSDP=1.19D-05 MaxDP=6.13D-05 DE=-6.81D-08 OVMax= 0.00D+00

 Cycle   9  Pass 1  IDiag  1:
 E= -16.0765762584847     Delta-E=       -0.000000015699 Rises=F Damp=F
 DIIS: error= 6.49D-07 at cycle   9 NSaved=   9.
 NSaved= 9 IEnMin= 9 EnMin= -16.0765762584847     IErMin= 9 ErrMin= 6.49D-07
 ErrMax= 6.49D-07  0.00D+00 EMaxC= 1.00D-01 BMatC= 1.96D-11 BMatP= 1.56D-09
 IDIUse=1 WtCom= 1.00D+00 WtEn= 0.00D+00
 Coeff-Com: -0.918D-04-0.448D-03 0.143D-02-0.227D-02 0.324D-02 0.204D-01
 Coeff-Com: -0.695D-01-0.145D+00 0.119D+01
 Coeff:     -0.918D-04-0.448D-03 0.143D-02-0.227D-02 0.324D-02 0.204D-01
 Coeff:     -0.695D-01-0.145D+00 0.119D+01
 Gap=     0.210 Goal=   None    Shift=    0.000
 RMSDP=4.57D-07 MaxDP=2.58D-06 DE=-1.57D-08 OVMax= 0.00D+00

 Cycle  10  Pass 1  IDiag  1:
 E= -16.0765762585667     Delta-E=       -0.000000000082 Rises=F Damp=F
 DIIS: error= 3.14D-07 at cycle  10 NSaved=  10.
 NSaved=10 IEnMin=10 EnMin= -16.0765762585667     IErMin=10 ErrMin= 3.14D-07
 ErrMax= 3.14D-07  0.00D+00 EMaxC= 1.00D-01 BMatC= 3.79D-12 BMatP= 1.96D-11
 IDIUse=1 WtCom= 1.00D+00 WtEn= 0.00D+00
 Coeff-Com: -0.496D-05 0.180D-04 0.190D-03-0.779D-04-0.503D-05 0.225D-02
 Coeff-Com: -0.168D-03-0.519D-01-0.890D-02 0.106D+01
 Coeff:     -0.496D-05 0.180D-04 0.190D-03-0.779D-04-0.503D-05 0.225D-02
 Coeff:     -0.168D-03-0.519D-01-0.890D-02 0.106D+01
 Gap=     0.210 Goal=   None    Shift=    0.000
 RMSDP=6.73D-07 MaxDP=2.90D-06 DE=-8.20D-11 OVMax= 0.00D+00

 Cycle  11  Pass 1  IDiag  1:
 E= -16.0765762586021     Delta-E=       -0.000000000035 Rises=F Damp=F
 DIIS: error= 8.16D-08 at cycle  11 NSaved=  11.
 NSaved=11 IEnMin=11 EnMin= -16.0765762586021     IErMin=11 ErrMin= 8.16D-08
 ErrMax= 8.16D-08  0.00D+00 EMaxC= 1.00D-01 BMatC= 1.89D-13 BMatP= 3.79D-12
 IDIUse=1 WtCom= 1.00D+00 WtEn= 0.00D+00
 Coeff-Com:  0.342D-05 0.230D-04-0.748D-04 0.943D-04-0.199D-03-0.926D-03
 Coeff-Com:  0.348D-02 0.461D-02-0.516D-01 0.217D-01 0.102D+01
 Coeff:      0.342D-05 0.230D-04-0.748D-04 0.943D-04-0.199D-03-0.926D-03
 Coeff:      0.348D-02 0.461D-02-0.516D-01 0.217D-01 0.102D+01
 Gap=     0.210 Goal=   None    Shift=    0.000
 RMSDP=1.08D-07 MaxDP=5.60D-07 DE=-3.54D-11 OVMax= 0.00D+00

 Cycle  12  Pass 1  IDiag  1:
 E= -16.0765762586041     Delta-E=       -0.000000000002 Rises=F Damp=F
 DIIS: error= 1.34D-08 at cycle  12 NSaved=  12.
 NSaved=12 IEnMin=12 EnMin= -16.0765762586041     IErMin=12 ErrMin= 1.34D-08
 ErrMax= 1.34D-08  0.00D+00 EMaxC= 1.00D-01 BMatC= 6.47D-15 BMatP= 1.89D-13
 IDIUse=1 WtCom= 1.00D+00 WtEn= 0.00D+00
 Coeff-Com: -0.436D-07-0.334D-05-0.917D-06-0.514D-05 0.106D-04 0.172D-04
 Coeff-Com: -0.207D-03 0.947D-03 0.528D-02-0.360D-01-0.103D+00 0.113D+01
 Coeff:     -0.436D-07-0.334D-05-0.917D-06-0.514D-05 0.106D-04 0.172D-04
 Coeff:     -0.207D-03 0.947D-03 0.528D-02-0.360D-01-0.103D+00 0.113D+01
 Gap=     0.210 Goal=   None    Shift=    0.000
 RMSDP=3.14D-08 MaxDP=1.42D-07 DE=-2.04D-12 OVMax= 0.00D+00

 Cycle  13  Pass 1  IDiag  1:
 E= -16.0765762586041     Delta-E=       -0.000000000000 Rises=F Damp=F
 DIIS: error= 4.25D-09 at cycle  13 NSaved=  13.
 NSaved=13 IEnMin=13 EnMin= -16.0765762586041     IErMin=13 ErrMin= 4.25D-09
 ErrMax= 4.25D-09  0.00D+00 EMaxC= 1.00D-01 BMatC= 6.62D-16 BMatP= 6.47D-15
 IDIUse=1 WtCom= 1.00D+00 WtEn= 0.00D+00
 Coeff-Com: -0.174D-06-0.126D-05 0.468D-05-0.465D-05 0.122D-04 0.549D-04
 Coeff-Com: -0.199D-03-0.261D-03 0.312D-02-0.272D-02-0.551D-01 0.667D-01
 Coeff-Com:  0.988D+00
 Coeff:     -0.174D-06-0.126D-05 0.468D-05-0.465D-05 0.122D-04 0.549D-04
 Coeff:     -0.199D-03-0.261D-03 0.312D-02-0.272D-02-0.551D-01 0.667D-01
 Coeff:      0.988D+00
 Gap=     0.210 Goal=   None    Shift=    0.000
 RMSDP=6.93D-09 MaxDP=3.06D-08 DE=-2.84D-14 OVMax= 0.00D+00

 SCF Done:  E(RHF) =  -16.0765762586     A.U. after   13 cycles
            NFock= 13  Conv=0.69D-08     -V/T= 1.8543
 KE= 1.881805224111D+01 PE=-1.227931211385D+02 EE= 4.473886711525D+01
 Leave Link  502 at Sun Dec  5 13:09:02 2021, MaxMem=   104857600 cpu:               0.1 elap:               0.2
 (Enter /usr/local/g16reva03/legacy_cpu/g16/l601.exe)
 Copying SCF densities to generalized density rwf, IOpCl= 0 IROHF=0.

 **********************************************************************

            Population analysis using the SCF density.

 **********************************************************************

 Alpha  occ. eigenvalues --   -0.59858  -0.59408  -0.58663  -0.57620  -0.56273
 Alpha  occ. eigenvalues --   -0.54614  -0.52634  -0.50318  -0.47654  -0.44623
 Alpha  occ. eigenvalues --   -0.41207  -0.37390  -0.33165  -0.28555  -0.23703
 Alpha  occ. eigenvalues --   -0.19181
 Alpha virt. eigenvalues --    0.01860   0.07033   0.13094   0.19459   0.25957
 Alpha virt. eigenvalues --    0.32513   0.39072   0.45566   0.51913   0.58006
 Alpha virt. eigenvalues --    0.63720   0.68914   0.73437   0.77144   0.79901
 Alpha virt. eigenvalues --    0.81605
          Condensed to atoms (all electrons):
               1          2          3          4          5          6
     1  H    0.759008   0.255791  -0.008418  -0.001608   0.000009   0.000001
     2  H    0.255791   0.689115   0.058772  -0.006635  -0.000299   0.000007
     3  H   -0.008418   0.058772   0.726303   0.232953  -0.007560  -0.001529
     4  H   -0.001608  -0.006635   0.232953   0.707237   0.074329  -0.007015
     5  H    0.000009  -0.000299  -0.007560   0.074329   0.718025   0.224336
     6  H    0.000001   0.000007  -0.001529  -0.007015   0.224336   0.710810
     7  H   -0.000000   0.000000   0.000008  -0.000383  -0.007351   0.080561
     8  H   -0.000000  -0.000000   0.000001   0.000007  -0.001492  -0.007114
     9  H    0.000000  -0.000000  -0.000000   0.000000   0.000008  -0.000421
    10  H    0.000000   0.000000  -0.000000  -0.000000   0.000001   0.000007
    11  H    0.000000   0.000000   0.000000  -0.000000  -0.000000   0.000000
    12  H    0.000000   0.000000   0.000000   0.000000  -0.000000  -0.000000
    13  H    0.000000   0.000000   0.000000   0.000000   0.000000  -0.000000
    14  H    0.000000   0.000000   0.000000   0.000000   0.000000   0.000000
    15  H    0.000000   0.000000   0.000000   0.000000   0.000000   0.000000
    16  H    0.000000   0.000000   0.000000   0.000000   0.000000   0.000000
    17  H    0.000000   0.000000   0.000000   0.000000   0.000000   0.000000
    18  H    0.000000   0.000000   0.000000   0.000000   0.000000   0.000000
    19  H    0.000000   0.000000   0.000000   0.000000   0.000000   0.000000
    20  H    0.000000   0.000000   0.000000   0.000000   0.000000   0.000000
    21  H    0.000000   0.000000   0.000000   0.000000   0.000000   0.000000
    22  H    0.000000   0.000000   0.000000   0.000000   0.000000   0.000000
    23  H    0.000000   0.000000   0.000000   0.000000   0.000000   0.000000
    24  H    0.000000   0.000000   0.000000   0.000000   0.000000   0.000000
    25  H    0.000000   0.000000   0.000000   0.000000   0.000000   0.000000
    26  H    0.000000   0.000000   0.000000   0.000000   0.000000   0.000000
    27  H    0.000000   0.000000   0.000000   0.000000   0.000000   0.000000
    28  H    0.000000   0.000000   0.000000   0.000000   0.000000   0.000000
    29  H    0.000000   0.000000   0.000000   0.000000   0.000000   0.000000
    30  H    0.000000   0.000000   0.000000   0.000000   0.000000   0.000000
    31  H    0.000000   0.000000   0.000000   0.000000   0.000000   0.000000
    32  H    0.000000   0.000000   0.000000   0.000000   0.000000   0.000000
               7          8          9         10         11         12
     1  H   -0.000000  -0.000000   0.000000   0.000000   0.000000   0.000000
     2  H    0.000000  -0.000000  -0.000000   0.000000   0.000000   0.000000
     3  H    0.000008   0.000001  -0.000000  -0.000000   0.000000   0.000000
     4  H   -0.000383   0.000007   0.000000  -0.000000  -0.000000   0.000000
     5  H   -0.007351  -0.001492   0.000008   0.000001  -0.000000  -0.000000
     6  H    0.080561  -0.007114  -0.000421   0.000007   0.000000  -0.000000
     7  H    0.715401   0.220452  -0.007272  -0.001474   0.000008   0.000001
     8  H    0.220452   0.711968   0.083597  -0.007151  -0.000440   0.000007
     9  H   -0.007272   0.083597   0.714279   0.218456  -0.007234  -0.001464
    10  H   -0.001474  -0.007151   0.218456   0.712463   0.085213  -0.007169
    11  H    0.000008  -0.000440  -0.007234   0.085213   0.713711   0.217373
    12  H    0.000001   0.000007  -0.001464  -0.007169   0.217373   0.712723
    13  H   -0.000000   0.000000   0.000008  -0.000451  -0.007214   0.086092
    14  H   -0.000000  -0.000000   0.000001   0.000008  -0.001459  -0.007180
    15  H    0.000000  -0.000000  -0.000000   0.000000   0.000008  -0.000456
    16  H    0.000000   0.000000  -0.000000  -0.000000   0.000001   0.000008
    17  H    0.000000   0.000000   0.000000  -0.000000  -0.000000   0.000000
    18  H    0.000000   0.000000   0.000000   0.000000  -0.000000  -0.000000
    19  H    0.000000   0.000000   0.000000   0.000000   0.000000  -0.000000
    20  H    0.000000   0.000000   0.000000   0.000000   0.000000   0.000000
    21  H    0.000000   0.000000   0.000000   0.000000   0.000000   0.000000
    22  H    0.000000   0.000000   0.000000   0.000000   0.000000   0.000000
    23  H    0.000000   0.000000   0.000000   0.000000   0.000000   0.000000
    24  H    0.000000   0.000000   0.000000   0.000000   0.000000   0.000000
    25  H    0.000000   0.000000   0.000000   0.000000   0.000000   0.000000
    26  H    0.000000   0.000000   0.000000   0.000000   0.000000   0.000000
    27  H    0.000000   0.000000   0.000000   0.000000   0.000000   0.000000
    28  H    0.000000   0.000000   0.000000   0.000000   0.000000   0.000000
    29  H    0.000000   0.000000   0.000000   0.000000   0.000000   0.000000
    30  H    0.000000   0.000000   0.000000   0.000000   0.000000   0.000000
    31  H    0.000000   0.000000   0.000000   0.000000   0.000000   0.000000
    32  H    0.000000   0.000000   0.000000   0.000000   0.000000   0.000000
              13         14         15         16         17         18
     1  H    0.000000   0.000000   0.000000   0.000000   0.000000   0.000000
     2  H    0.000000   0.000000   0.000000   0.000000   0.000000   0.000000
     3  H    0.000000   0.000000   0.000000   0.000000   0.000000   0.000000
     4  H    0.000000   0.000000   0.000000   0.000000   0.000000   0.000000
     5  H    0.000000   0.000000   0.000000   0.000000   0.000000   0.000000
     6  H   -0.000000   0.000000   0.000000   0.000000   0.000000   0.000000
     7  H   -0.000000  -0.000000   0.000000   0.000000   0.000000   0.000000
     8  H    0.000000  -0.000000  -0.000000   0.000000   0.000000   0.000000
     9  H    0.000008   0.000001  -0.000000  -0.000000   0.000000   0.000000
    10  H   -0.000451   0.000008   0.000000  -0.000000  -0.000000   0.000000
    11  H   -0.007214  -0.001459   0.000008   0.000001  -0.000000  -0.000000
    12  H    0.086092  -0.007180  -0.000456   0.000008   0.000000  -0.000000
    13  H    0.713388   0.216797  -0.007202  -0.001456   0.000008   0.000001
    14  H    0.216797   0.712890   0.086532  -0.007187  -0.000459   0.000008
    15  H   -0.007202   0.086532   0.713182   0.216546  -0.007194  -0.001455
    16  H   -0.001456  -0.007187   0.216546   0.713030   0.086666  -0.007194
    17  H    0.000008  -0.000459  -0.007194   0.086666   0.713030   0.216546
    18  H    0.000001   0.000008  -0.001455  -0.007194   0.216546   0.713182
    19  H   -0.000000   0.000000   0.000008  -0.000459  -0.007187   0.086532
    20  H   -0.000000  -0.000000   0.000001   0.000008  -0.001456  -0.007202
    21  H    0.000000  -0.000000  -0.000000   0.000000   0.000008  -0.000456
    22  H    0.000000   0.000000  -0.000000  -0.000000   0.000001   0.000008
    23  H    0.000000   0.000000   0.000000  -0.000000  -0.000000   0.000000
    24  H    0.000000   0.000000   0.000000   0.000000  -0.000000  -0.000000
    25  H    0.000000   0.000000   0.000000   0.000000   0.000000  -0.000000
    26  H    0.000000   0.000000   0.000000   0.000000   0.000000   0.000000
    27  H    0.000000   0.000000   0.000000   0.000000   0.000000   0.000000
    28  H    0.000000   0.000000   0.000000   0.000000   0.000000   0.000000
    29  H    0.000000   0.000000   0.000000   0.000000   0.000000   0.000000
    30  H    0.000000   0.000000   0.000000   0.000000   0.000000   0.000000
    31  H    0.000000   0.000000   0.000000   0.000000   0.000000   0.000000
    32  H    0.000000   0.000000   0.000000   0.000000   0.000000   0.000000
              19         20         21         22         23         24
     1  H    0.000000   0.000000   0.000000   0.000000   0.000000   0.000000
     2  H    0.000000   0.000000   0.000000   0.000000   0.000000   0.000000
     3  H    0.000000   0.000000   0.000000   0.000000   0.000000   0.000000
     4  H    0.000000   0.000000   0.000000   0.000000   0.000000   0.000000
     5  H    0.000000   0.000000   0.000000   0.000000   0.000000   0.000000
     6  H    0.000000   0.000000   0.000000   0.000000   0.000000   0.000000
     7  H    0.000000   0.000000   0.000000   0.000000   0.000000   0.000000
     8  H    0.000000   0.000000   0.000000   0.000000   0.000000   0.000000
     9  H    0.000000   0.000000   0.000000   0.000000   0.000000   0.000000
    10  H    0.000000   0.000000   0.000000   0.000000   0.000000   0.000000
    11  H    0.000000   0.000000   0.000000   0.000000   0.000000   0.000000
    12  H   -0.000000   0.000000   0.000000   0.000000   0.000000   0.000000
    13  H   -0.000000  -0.000000   0.000000   0.000000   0.000000   0.000000
    14  H    0.000000  -0.000000  -0.000000   0.000000   0.000000   0.000000
    15  H    0.000008   0.000001  -0.000000  -0.000000   0.000000   0.000000
    16  H   -0.000459   0.000008   0.000000  -0.000000  -0.000000   0.000000
    17  H   -0.007187  -0.001456   0.000008   0.000001  -0.000000  -0.000000
    18  H    0.086532  -0.007202  -0.000456   0.000008   0.000000  -0.000000
    19  H    0.712890   0.216797  -0.007180  -0.001459   0.000008   0.000001
    20  H    0.216797   0.713388   0.086092  -0.007214  -0.000451   0.000008
    21  H   -0.007180   0.086092   0.712723   0.217373  -0.007169  -0.001464
    22  H   -0.001459  -0.007214   0.217373   0.713711   0.085213  -0.007234
    23  H    0.000008  -0.000451  -0.007169   0.085213   0.712463   0.218456
    24  H    0.000001   0.000008  -0.001464  -0.007234   0.218456   0.714279
    25  H   -0.000000   0.000000   0.000007  -0.000440  -0.007151   0.083597
    26  H   -0.000000  -0.000000   0.000001   0.000008  -0.001474  -0.007272
    27  H    0.000000  -0.000000  -0.000000   0.000000   0.000007  -0.000421
    28  H    0.000000   0.000000  -0.000000  -0.000000   0.000001   0.000008
    29  H    0.000000   0.000000   0.000000  -0.000000  -0.000000   0.000000
    30  H    0.000000   0.000000   0.000000   0.000000  -0.000000  -0.000000
    31  H    0.000000   0.000000   0.000000   0.000000   0.000000  -0.000000
    32  H    0.000000   0.000000   0.000000   0.000000   0.000000   0.000000
              25         26         27         28         29         30
     1  H    0.000000   0.000000   0.000000   0.000000   0.000000   0.000000
     2  H    0.000000   0.000000   0.000000   0.000000   0.000000   0.000000
     3  H    0.000000   0.000000   0.000000   0.000000   0.000000   0.000000
     4  H    0.000000   0.000000   0.000000   0.000000   0.000000   0.000000
     5  H    0.000000   0.000000   0.000000   0.000000   0.000000   0.000000
     6  H    0.000000   0.000000   0.000000   0.000000   0.000000   0.000000
     7  H    0.000000   0.000000   0.000000   0.000000   0.000000   0.000000
     8  H    0.000000   0.000000   0.000000   0.000000   0.000000   0.000000
     9  H    0.000000   0.000000   0.000000   0.000000   0.000000   0.000000
    10  H    0.000000   0.000000   0.000000   0.000000   0.000000   0.000000
    11  H    0.000000   0.000000   0.000000   0.000000   0.000000   0.000000
    12  H    0.000000   0.000000   0.000000   0.000000   0.000000   0.000000
    13  H    0.000000   0.000000   0.000000   0.000000   0.000000   0.000000
    14  H    0.000000   0.000000   0.000000   0.000000   0.000000   0.000000
    15  H    0.000000   0.000000   0.000000   0.000000   0.000000   0.000000
    16  H    0.000000   0.000000   0.000000   0.000000   0.000000   0.000000
    17  H    0.000000   0.000000   0.000000   0.000000   0.000000   0.000000
    18  H   -0.000000   0.000000   0.000000   0.000000   0.000000   0.000000
    19  H   -0.000000  -0.000000   0.000000   0.000000   0.000000   0.000000
    20  H    0.000000  -0.000000  -0.000000   0.000000   0.000000   0.000000
    21  H    0.000007   0.000001  -0.000000  -0.000000   0.000000   0.000000
    22  H   -0.000440   0.000008   0.000000  -0.000000  -0.000000   0.000000
    23  H   -0.007151  -0.001474   0.000007   0.000001  -0.000000  -0.000000
    24  H    0.083597  -0.007272  -0.000421   0.000008   0.000000  -0.000000
    25  H    0.711968   0.220452  -0.007114  -0.001492   0.000007   0.000001
    26  H    0.220452   0.715401   0.080561  -0.007351  -0.000383   0.000008
    27  H   -0.007114   0.080561   0.710810   0.224336  -0.007015  -0.001529
    28  H   -0.001492  -0.007351   0.224336   0.718025   0.074329  -0.007560
    29  H    0.000007  -0.000383  -0.007015   0.074329   0.707237   0.232953
    30  H    0.000001   0.000008  -0.001529  -0.007560   0.232953   0.726303
    31  H   -0.000000   0.000000   0.000007  -0.000299  -0.006635   0.058772
    32  H   -0.000000  -0.000000   0.000001   0.000009  -0.001608  -0.008418
              31         32
     1  H    0.000000   0.000000
     2  H    0.000000   0.000000
     3  H    0.000000   0.000000
     4  H    0.000000   0.000000
     5  H    0.000000   0.000000
     6  H    0.000000   0.000000
     7  H    0.000000   0.000000
     8  H    0.000000   0.000000
     9  H    0.000000   0.000000
    10  H    0.000000   0.000000
    11  H    0.000000   0.000000
    12  H    0.000000   0.000000
    13  H    0.000000   0.000000
    14  H    0.000000   0.000000
    15  H    0.000000   0.000000
    16  H    0.000000   0.000000
    17  H    0.000000   0.000000
    18  H    0.000000   0.000000
    19  H    0.000000   0.000000
    20  H    0.000000   0.000000
    21  H    0.000000   0.000000
    22  H    0.000000   0.000000
    23  H    0.000000   0.000000
    24  H   -0.000000   0.000000
    25  H   -0.000000  -0.000000
    26  H    0.000000  -0.000000
    27  H    0.000007   0.000001
    28  H   -0.000299   0.000009
    29  H   -0.006635  -0.001608
    30  H    0.058772  -0.008418
    31  H    0.689115   0.255791
    32  H    0.255791   0.759008
 Mulliken charges:
               1
     1  H   -0.004783
     2  H    0.003248
     3  H   -0.000531
     4  H    0.001115
     5  H   -0.000006
     6  H    0.000356
     7  H    0.000048
     8  H    0.000164
     9  H    0.000043
    10  H    0.000096
    11  H    0.000034
    12  H    0.000066
    13  H    0.000031
    14  H    0.000049
    15  H    0.000032
    16  H    0.000038
    17  H    0.000038
    18  H    0.000032
    19  H    0.000049
    20  H    0.000031
    21  H    0.000066
    22  H    0.000034
    23  H    0.000096
    24  H    0.000043
    25  H    0.000164
    26  H    0.000048
    27  H    0.000356
    28  H   -0.000006
    29  H    0.001115
    30  H   -0.000531
    31  H    0.003248
    32  H   -0.004783
 Sum of Mulliken charges =  -0.00000
 Mulliken charges with hydrogens summed into heavy atoms:
               1
 Electronic spatial extent (au):  <R**2>=          53625.8092
 Charge=              0.0000 electrons
 Dipole moment (field-independent basis, Debye):
    X=              0.0000    Y=              0.0000    Z=             -0.0000  Tot=              0.0000
 Quadrupole moment (field-independent basis, Debye-Ang):
   XX=            -30.1948   YY=            -30.1948   ZZ=            -24.7040
   XY=              0.0000   XZ=              0.0000   YZ=              0.0000
 Traceless Quadrupole moment (field-independent basis, Debye-Ang):
   XX=             -1.8303   YY=             -1.8303   ZZ=              3.6606
   XY=              0.0000   XZ=              0.0000   YZ=              0.0000
 Octapole moment (field-independent basis, Debye-Ang**2):
  XXX=              0.0000  YYY=              0.0000  ZZZ=          -1378.4814  XYY=              0.0000
  XXY=              0.0000  XXZ=           -561.6238  XZZ=              0.0000  YZZ=              0.0000
  YYZ=           -561.6238  XYZ=              0.0000
 Hexadecapole moment (field-independent basis, Debye-Ang**3):
 XXXX=            -25.3916 YYYY=            -25.3916 ZZZZ=         -68415.7397 XXXY=              0.0000
 XXXZ=              0.0000 YYYX=              0.0000 YYYZ=              0.0000 ZZZX=              0.0000
 ZZZY=              0.0000 XXYY=             -8.4639 XXZZ=         -14158.5624 YYZZ=         -14158.5624
 XXYZ=              0.0000 YYXZ=              0.0000 ZZXY=              0.0000
 N-N= 4.315962552356D+01 E-N=-1.227931211716D+02  KE= 1.881805224111D+01
 No NMR shielding tensors so no spin-rotation constants.
 Leave Link  601 at Sun Dec  5 13:09:02 2021, MaxMem=   104857600 cpu:               0.1 elap:               0.1
 (Enter /usr/local/g16reva03/legacy_cpu/g16/l9999.exe)
 1\1\GINC-USER1\SP\RHF\STO-3G\H32\MRAMIN02\05-Dec-2021\0\\#p rhf nosymm
  output=matrix int=noraf scf=conven\\h2-sto3g\\0,1\H\H,1,1.2\H,2,1.2,1
 ,180.\H,3,1.2,2,180.,1,0.,0\H,4,1.2,3,180.,1,0.,0\H,5,1.2,4,180.,1,0.,
 0\H,6,1.2,5,180.,1,0.,0\H,7,1.2,6,180.,1,0.,0\H,8,1.2,7,180.,1,0.,0\H,
 9,1.2,8,180.,1,0.,0\H,10,1.2,9,180.,1,0.,0\H,11,1.2,10,180.,1,0.,0\H,1
 2,1.2,11,180.,1,0.,0\H,13,1.2,12,180.,1,0.,0\H,14,1.2,13,180.,1,0.,0\H
 ,15,1.2,14,180.,1,0.,0\H,16,1.2,15,180.,1,0.,0\H,17,1.2,16,180.,1,0.,0
 \H,18,1.2,17,180.,1,0.,0\H,19,1.2,18,180.,1,0.,0\H,20,1.2,19,180.,1,0.
 ,0\H,21,1.2,20,180.,1,0.,0\H,22,1.2,21,180.,1,0.,0\H,23,1.2,22,180.,1,
 0.,0\H,24,1.2,23,180.,1,0.,0\H,25,1.2,24,180.,1,0.,0\H,26,1.2,25,180.,
 1,0.,0\H,27,1.2,26,180.,1,0.,0\H,28,1.2,27,180.,1,0.,0\H,29,1.2,28,180
 .,1,0.,0\H,30,1.2,29,180.,1,0.,0\H,31,1.2,30,180.,1,0.,0\\Version=EM64
 L-G16RevA.03\HF=-16.0765763\RMSD=6.930e-09\Dipole=0.,0.,0.\Quadrupole=
 -1.360773,-1.360773,2.721546,0.,0.,0.\PG=D*H [C*(H1H1H1H1H1H1H1H1H1H1H
 1H1H1H1H1H1.H1H1H1H1H1H1H1H1H1H1H1H1H1H1H1H1)]\\@


 IF AT FIRST YOU DON'T SUCCEED, TRY, TRY AGAIN.
 THEN GIVE UP;
 THERE'S NO USE BEING A DAMN FOOL ABOUT IT.

                                 -- W. C. FIELDS

 Writing WrtUnf unformatted file "h2-32.mat"
 Gaussian matrix elements                                         Version   2 NLab=11 Len12L=8 Len4L=8
 Write SHELL TO ATOM MAP                   from file     0 offset           0 length                  32 to matrix element file.
 Write SHELL TYPES                         from file     0 offset           0 length                  32 to matrix element file.
 Write NUMBER OF PRIMITIVES PER SHELL      from file     0 offset           0 length                  32 to matrix element file.
 Write PRIMITIVE EXPONENTS                 from file     0 offset           0 length                  96 to matrix element file.
 Write CONTRACTION COEFFICIENTS            from file     0 offset           0 length                  96 to matrix element file.
 Write P(S=P) CONTRACTION COEFFICIENTS     from file     0 offset           0 length                  96 to matrix element file.
 Write COORDINATES OF EACH SHELL           from file     0 offset           0 length                  96 to matrix element file.
 Write GAUSSIAN SCALARS                    from file   501 offset           0 to matrix element file.
 Write INTEGER ISO                         from file     0 offset           0 length                  32 to matrix element file.
 Write INTEGER SPIN                        from file     0 offset           0 length                  32 to matrix element file.
 Write REAL ZEFFECTIVE                     from file     0 offset           0 length                  32 to matrix element file.
 Write REAL GFACTOR                        from file     0 offset           0 length                  32 to matrix element file.
 Write REAL ZNUCLEAR                       from file     0 offset           0 length                  32 to matrix element file.
 Write NUCLEAR GRADIENT                    from file 10584 offset           0 length                  96 to matrix element file.
 Array NUCLEAR FORCE CONSTANTS              on  file 10585 does not exist.
 Write ELECTRIC DIPOLE MOMENT              from file     0 offset           0 length                   3 to matrix element file.
 Write OVERLAP                             from file   514 offset           0 length                 528 to matrix element file.
 Write CORE HAMILTONIAN ALPHA              from file   515 offset           0 length                 528 to matrix element file.
 Write CORE HAMILTONIAN BETA               from file   515 offset         528 length                 528 to matrix element file.
 Write KINETIC ENERGY                      from file   516 offset           0 length                 528 to matrix element file.
 Write ORTHOGONAL BASIS                    from file   685 offset           0 length                1024 to matrix element file.
 Write DIPOLE INTEGRALS                    from file   518 offset           0 length                1584 to matrix element file.
 Write DIP VEL INTEGRALS                   from file   572 offset           0 length                1584 to matrix element file.
 Write R X DEL INTEGRALS                   from file   572 offset        1584 length                1584 to matrix element file.
 Write ALPHA ORBITAL ENERGIES              from file     0 offset           0 length                  32 to matrix element file.
 Write ALPHA MO COEFFICIENTS               from file 10524 offset           0 length                1024 to matrix element file.
 Write ALPHA DENSITY MATRIX                from file 10528 offset           0 length                 528 to matrix element file.
 Write ALPHA SCF DENSITY MATRIX            from file 10528 offset           0 length                 528 to matrix element file.
 Write ALPHA FOCK MATRIX                   from file 10536 offset           0 length                 528 to matrix element file.
 Write REGULAR 2E INTEGRALS                to matrix element file, NR=1 ITotal=       16813.
 Job cpu time:       0 days  0 hours  0 minutes  5.0 seconds.
 Elapsed time:       0 days  0 hours  0 minutes  5.8 seconds.
 File lengths (MBytes):  RWF=     72 Int=      4 D2E=      0 Chk=      8 Scr=      8
 Normal termination of Gaussian 16 at Sun Dec  5 13:09:03 2021.
