 Entering Gaussian System, Link 0=g16
 Input=h2-8.com
 Output=h2-8.log
 Initial command:
 /usr/local/g16reva03/legacy_cpu/g16/l1.exe "/scratch/global/g16/Gau-19292.inp" -scrdir="/scratch/global/g16/"
 Entering Link 1 = /usr/local/g16reva03/legacy_cpu/g16/l1.exe PID=     19293.
  
 Copyright (c) 1988,1990,1992,1993,1995,1998,2003,2009,2016,
            Gaussian, Inc.  All Rights Reserved.
  
 This is part of the Gaussian(R) 16 program.  It is based on
 the Gaussian(R) 09 system (copyright 2009, Gaussian, Inc.),
 the Gaussian(R) 03 system (copyright 2003, Gaussian, Inc.),
 the Gaussian(R) 98 system (copyright 1998, Gaussian, Inc.),
 the Gaussian(R) 94 system (copyright 1995, Gaussian, Inc.),
 the Gaussian 92(TM) system (copyright 1992, Gaussian, Inc.),
 the Gaussian 90(TM) system (copyright 1990, Gaussian, Inc.),
 the Gaussian 88(TM) system (copyright 1988, Gaussian, Inc.),
 the Gaussian 86(TM) system (copyright 1986, Carnegie Mellon
 University), and the Gaussian 82(TM) system (copyright 1983,
 Carnegie Mellon University). Gaussian is a federally registered
 trademark of Gaussian, Inc.
  
 This software contains proprietary and confidential information,
 including trade secrets, belonging to Gaussian, Inc.
  
 This software is provided under written license and may be
 used, copied, transmitted, or stored only in accord with that
 written license.
  
 The following legend is applicable only to US Government
 contracts under FAR:
  
                    RESTRICTED RIGHTS LEGEND
  
 Use, reproduction and disclosure by the US Government is
 subject to restrictions as set forth in subparagraphs (a)
 and (c) of the Commercial Computer Software - Restricted
 Rights clause in FAR 52.227-19.
  
 Gaussian, Inc.
 340 Quinnipiac St., Bldg. 40, Wallingford CT 06492
  
  
 ---------------------------------------------------------------
 Warning -- This program may not be used in any manner that
 competes with the business of Gaussian, Inc. or will provide
 assistance to any competitor of Gaussian, Inc.  The licensee
 of this program is prohibited from giving any competitor of
 Gaussian, Inc. access to this program.  By using this program,
 the user acknowledges that Gaussian, Inc. is engaged in the
 business of creating and licensing software in the field of
 computational chemistry and represents and warrants to the
 licensee that it is not a competitor of Gaussian, Inc. and that
 it will not use this program in any manner prohibited above.
 ---------------------------------------------------------------
  

 Cite this work as:
 Gaussian 16, Revision A.03,
 M. J. Frisch, G. W. Trucks, H. B. Schlegel, G. E. Scuseria, 
 M. A. Robb, J. R. Cheeseman, G. Scalmani, V. Barone, 
 G. A. Petersson, H. Nakatsuji, X. Li, M. Caricato, A. V. Marenich, 
 J. Bloino, B. G. Janesko, R. Gomperts, B. Mennucci, H. P. Hratchian, 
 J. V. Ortiz, A. F. Izmaylov, J. L. Sonnenberg, D. Williams-Young, 
 F. Ding, F. Lipparini, F. Egidi, J. Goings, B. Peng, A. Petrone, 
 T. Henderson, D. Ranasinghe, V. G. Zakrzewski, J. Gao, N. Rega, 
 G. Zheng, W. Liang, M. Hada, M. Ehara, K. Toyota, R. Fukuda, 
 J. Hasegawa, M. Ishida, T. Nakajima, Y. Honda, O. Kitao, H. Nakai, 
 T. Vreven, K. Throssell, J. A. Montgomery, Jr., J. E. Peralta, 
 F. Ogliaro, M. J. Bearpark, J. J. Heyd, E. N. Brothers, K. N. Kudin, 
 V. N. Staroverov, T. A. Keith, R. Kobayashi, J. Normand, 
 K. Raghavachari, A. P. Rendell, J. C. Burant, S. S. Iyengar, 
 J. Tomasi, M. Cossi, J. M. Millam, M. Klene, C. Adamo, R. Cammi, 
 J. W. Ochterski, R. L. Martin, K. Morokuma, O. Farkas, 
 J. B. Foresman, and D. J. Fox, Gaussian, Inc., Wallingford CT, 2016.
 
 ******************************************
 Gaussian 16:  EM64L-G16RevA.03 25-Dec-2016
                 5-Dec-2021 
 ******************************************
 ------------------------------------------------
 #p rhf nosymm output=matrix int=noraf scf=conven
 ------------------------------------------------
 1/38=1,172=1/1;
 2/12=2,15=1,17=6,18=5,40=1/2;
 3/25=20,28=1,30=1,116=1/1,2,3,8,20;
 4//1;
 5/5=1,29=1/2;
 6/7=2,8=2,9=2,10=2,28=1/1;
 99/5=1,6=100000,9=1/99;
 Leave Link    1 at Sun Dec  5 12:29:31 2021, MaxMem=           0 cpu:               0.1 elap:               0.4
 (Enter /usr/local/g16reva03/legacy_cpu/g16/l101.exe)
 --------
 h2-sto3g
 --------
 Symbolic Z-matrix:
 Charge =  0 Multiplicity = 1
 H
 H                    1     1.2 
 H                    2     1.2      1     180. 
 H                    3     1.2      2     180.     1     0.       0
 H                    4     1.2      3     180.     1     0.       0
 H                    5     1.2      4     180.     1     0.       0
 H                    6     1.2      5     180.     1     0.       0
 H                    7     1.2      6     180.     1     0.       0
 
 ITRead=  0  0  0  0  0  0  0  0
 MicOpt= -1 -1 -1 -1 -1 -1 -1 -1
 NAtoms=      8 NQM=        8 NQMF=       0 NMMI=      0 NMMIF=      0
                NMic=       0 NMicF=      0.
                    Isotopes and Nuclear Properties:
 (Nuclear quadrupole moments (NQMom) in fm**2, nuclear magnetic moments (NMagM)
  in nuclear magnetons)

  Atom         1           2           3           4           5           6           7           8
 IAtWgt=           1           1           1           1           1           1           1           1
 AtmWgt=   1.0078250   1.0078250   1.0078250   1.0078250   1.0078250   1.0078250   1.0078250   1.0078250
 NucSpn=           1           1           1           1           1           1           1           1
 AtZEff=  -0.0000000  -0.0000000  -0.0000000  -0.0000000  -0.0000000  -0.0000000  -0.0000000  -0.0000000
 NQMom=    0.0000000   0.0000000   0.0000000   0.0000000   0.0000000   0.0000000   0.0000000   0.0000000
 NMagM=    2.7928460   2.7928460   2.7928460   2.7928460   2.7928460   2.7928460   2.7928460   2.7928460
 AtZNuc=   1.0000000   1.0000000   1.0000000   1.0000000   1.0000000   1.0000000   1.0000000   1.0000000
 Leave Link  101 at Sun Dec  5 12:29:31 2021, MaxMem=   104857600 cpu:               0.2 elap:               0.2
 (Enter /usr/local/g16reva03/legacy_cpu/g16/l202.exe)
                          Input orientation:                          
 ---------------------------------------------------------------------
 Center     Atomic      Atomic             Coordinates (Angstroms)
 Number     Number       Type             X           Y           Z
 ---------------------------------------------------------------------
      1          1           0        0.000000    0.000000    0.000000
      2          1           0        0.000000    0.000000    1.200000
      3          1           0        0.000000    0.000000    2.400000
      4          1           0        0.000000    0.000000    3.600000
      5          1           0        0.000000    0.000000    4.800000
      6          1           0        0.000000    0.000000    6.000000
      7          1           0        0.000000    0.000000    7.200000
      8          1           0        0.000000    0.000000    8.400000
 ---------------------------------------------------------------------
                    Distance matrix (angstroms):
                    1          2          3          4          5
     1  H    0.000000
     2  H    1.200000   0.000000
     3  H    2.400000   1.200000   0.000000
     4  H    3.600000   2.400000   1.200000   0.000000
     5  H    4.800000   3.600000   2.400000   1.200000   0.000000
     6  H    6.000000   4.800000   3.600000   2.400000   1.200000
     7  H    7.200000   6.000000   4.800000   3.600000   2.400000
     8  H    8.400000   7.200000   6.000000   4.800000   3.600000
                    6          7          8
     6  H    0.000000
     7  H    1.200000   0.000000
     8  H    2.400000   1.200000   0.000000
 Symmetry turned off by external request.
 Stoichiometry    H8
 Framework group  D*H[C*(HHHH.HHHH)]
 Deg. of freedom     4
 Full point group                 D*H     NOp   8
 Rotational constants (GHZ):           0.0000000           8.2912550           8.2912550
 Leave Link  202 at Sun Dec  5 12:29:31 2021, MaxMem=   104857600 cpu:               0.0 elap:               0.1
 (Enter /usr/local/g16reva03/legacy_cpu/g16/l301.exe)
 Standard basis: STO-3G (5D, 7F)
 Ernie: Thresh=  0.10000D-02 Tol=  0.10000D-05 Strict=F.
     8 basis functions,    24 primitive gaussians,     8 cartesian basis functions
     4 alpha electrons        4 beta electrons
       nuclear repulsion energy         6.0603390108 Hartrees.
 IExCor=    0 DFT=F Ex=HF Corr=None ExCW=0 ScaHFX=  1.000000
 ScaDFX=  1.000000  1.000000  1.000000  1.000000 ScalE2=  1.000000  1.000000
 IRadAn=      5 IRanWt=     -1 IRanGd=            0 ICorTp=0 IEmpDi=  4
 NAtoms=    8 NActive=    8 NUniq=    8 SFac= 1.00D+00 NAtFMM=   60 NAOKFM=F Big=F
 Integral buffers will be    131072 words long.
 Regular integral format.
 Two-electron integral symmetry is turned off.
 Leave Link  301 at Sun Dec  5 12:29:32 2021, MaxMem=   104857600 cpu:               0.1 elap:               0.1
 (Enter /usr/local/g16reva03/legacy_cpu/g16/l302.exe)
 NPDir=0 NMtPBC=     1 NCelOv=     1 NCel=       1 NClECP=     1 NCelD=      1
         NCelK=      1 NCelE2=     1 NClLst=     1 CellRange=     0.0.
 One-electron integrals computed using PRISM.
 NBasis=     8 RedAO= T EigKep=  3.61D-01  NBF=     8
 NBsUse=     8 1.00D-06 EigRej= -1.00D+00 NBFU=     8
 Leave Link  302 at Sun Dec  5 12:29:32 2021, MaxMem=   104857600 cpu:               0.1 elap:               0.2
 (Enter /usr/local/g16reva03/legacy_cpu/g16/l303.exe)
 DipDrv:  MaxL=1.
 Leave Link  303 at Sun Dec  5 12:29:32 2021, MaxMem=   104857600 cpu:               0.1 elap:               0.1
 (Enter /usr/local/g16reva03/legacy_cpu/g16/l308.exe)
 Leave Link  308 at Sun Dec  5 12:29:32 2021, MaxMem=   104857600 cpu:               0.1 elap:               0.1
 (Enter /usr/local/g16reva03/legacy_cpu/g16/l320.exe)
 Enter DskPsm, NBasis=   8 NBas6D=   8 NShell=   8 IDoSP=4.
 Out2e will use a cutoff of  1.00D-10
 FoFCou: FMM=F IPFlag=           0 FMFlag=           0 FMFlg1=           0
         NFxFlg=           0 DoJE=F BraDBF=F KetDBF=F FulRan=T
         wScrn=  0.000000 ICntrl=       600 IOpCl=  9 I1Cent=           0 NGrid=           0
         NMat0=    0 NMatS0=      0 NMatT0=    0 NMatD0=    0 NMtDS0=    0 NMtDT0=    0
 Symmetry not used in FoFCou.
          597 integrals produced for a total of          597.
 Leave Link  320 at Sun Dec  5 12:29:32 2021, MaxMem=   104857600 cpu:               0.1 elap:               0.2
 (Enter /usr/local/g16reva03/legacy_cpu/g16/l401.exe)
 ExpMin= 1.69D-01 ExpMax= 3.43D+00 ExpMxC= 3.43D+00 IAcc=3 IRadAn=         5 AccDes= 0.00D+00
 Harris functional with IExCor=  205 and IRadAn=       5 diagonalized for initial guess.
 HarFok:  IExCor=  205 AccDes= 0.00D+00 IRadAn=         5 IDoV= 1 UseB2=F ITyADJ=14
 ICtDFT=  3500011 ScaDFX=  1.000000  1.000000  1.000000  1.000000
 FoFCou: FMM=F IPFlag=           0 FMFlag=      100000 FMFlg1=           0
         NFxFlg=           0 DoJE=T BraDBF=F KetDBF=T FulRan=T
         wScrn=  0.000000 ICntrl=       500 IOpCl=  0 I1Cent=   200000004 NGrid=           0
         NMat0=    1 NMatS0=      1 NMatT0=    0 NMatD0=    1 NMtDS0=    0 NMtDT0=    0
 Symmetry not used in FoFCou.
 Harris En= -4.38454157987356    
 JPrj=0 DoOrth=F DoCkMO=F.
 Leave Link  401 at Sun Dec  5 12:29:33 2021, MaxMem=   104857600 cpu:               0.7 elap:               0.7
 (Enter /usr/local/g16reva03/legacy_cpu/g16/l502.exe)
 Two-electron integral symmetry not used.
 Closed shell SCF:
 Using DIIS extrapolation, IDIIS=  1040.
 Unsorted integral processing.
 NGot=   104857600 LenX=   104593984 LenY=   104593102
 Requested convergence on RMS density matrix=1.00D-08 within 128 cycles.
 Requested convergence on MAX density matrix=1.00D-06.
 Requested convergence on             energy=1.00D-06.
 No special actions if energy rises.

 Cycle   1  Pass 1  IDiag  1:
 E= -3.99832223538872    
 DIIS: error= 1.82D-02 at cycle   1 NSaved=   1.
 NSaved= 1 IEnMin= 1 EnMin= -3.99832223538872     IErMin= 1 ErrMin= 1.82D-02
 ErrMax= 1.82D-02  0.00D+00 EMaxC= 1.00D-01 BMatC= 2.30D-03 BMatP= 2.30D-03
 IDIUse=3 WtCom= 8.18D-01 WtEn= 1.82D-01
 Coeff-Com:  0.100D+01
 Coeff-En:   0.100D+01
 Coeff:      0.100D+01
 Gap=     0.357 Goal=   None    Shift=    0.000
 GapD=    0.357 DampG=1.000 DampE=0.500 DampFc=0.5000 IDamp=-1.
 Damping current iteration by 5.00D-01
 RMSDP=1.48D-02 MaxDP=3.13D-02              OVMax= 0.00D+00

 Cycle   2  Pass 1  IDiag  1:
 E= -4.00285023649305     Delta-E=       -0.004528001104 Rises=F Damp=T
 DIIS: error= 1.12D-02 at cycle   2 NSaved=   2.
 NSaved= 2 IEnMin= 2 EnMin= -4.00285023649305     IErMin= 2 ErrMin= 1.12D-02
 ErrMax= 1.12D-02  0.00D+00 EMaxC= 1.00D-01 BMatC= 1.12D-03 BMatP= 2.30D-03
 IDIUse=3 WtCom= 8.88D-01 WtEn= 1.12D-01
 Coeff-Com: -0.175D+01 0.275D+01
 Coeff-En:   0.000D+00 0.100D+01
 Coeff:     -0.156D+01 0.256D+01
 Gap=     0.383 Goal=   None    Shift=    0.000
 RMSDP=1.54D-02 MaxDP=3.30D-02 DE=-4.53D-03 OVMax= 0.00D+00

 Cycle   3  Pass 1  IDiag  1:
 E= -4.01087213713539     Delta-E=       -0.008021900642 Rises=F Damp=F
 DIIS: error= 2.03D-03 at cycle   3 NSaved=   3.
 NSaved= 3 IEnMin= 3 EnMin= -4.01087213713539     IErMin= 3 ErrMin= 2.03D-03
 ErrMax= 2.03D-03  0.00D+00 EMaxC= 1.00D-01 BMatC= 3.82D-05 BMatP= 1.12D-03
 IDIUse=3 WtCom= 9.80D-01 WtEn= 2.03D-02
 Coeff-Com:  0.172D-02-0.215D+00 0.121D+01
 Coeff-En:   0.000D+00 0.000D+00 0.100D+01
 Coeff:      0.168D-02-0.211D+00 0.121D+01
 Gap=     0.392 Goal=   None    Shift=    0.000
 RMSDP=3.18D-03 MaxDP=7.65D-03 DE=-8.02D-03 OVMax= 0.00D+00

 Cycle   4  Pass 1  IDiag  1:
 E= -4.01106529510208     Delta-E=       -0.000193157967 Rises=F Damp=F
 DIIS: error= 1.63D-04 at cycle   4 NSaved=   4.
 NSaved= 4 IEnMin= 4 EnMin= -4.01106529510208     IErMin= 4 ErrMin= 1.63D-04
 ErrMax= 1.63D-04  0.00D+00 EMaxC= 1.00D-01 BMatC= 1.71D-07 BMatP= 3.82D-05
 IDIUse=3 WtCom= 9.98D-01 WtEn= 1.63D-03
 Coeff-Com:  0.440D-02 0.175D-01-0.128D+00 0.111D+01
 Coeff-En:   0.000D+00 0.000D+00 0.000D+00 0.100D+01
 Coeff:      0.439D-02 0.174D-01-0.127D+00 0.111D+01
 Gap=     0.392 Goal=   None    Shift=    0.000
 RMSDP=1.19D-04 MaxDP=3.30D-04 DE=-1.93D-04 OVMax= 0.00D+00

 Cycle   5  Pass 1  IDiag  1:
 E= -4.01106572096092     Delta-E=       -0.000000425859 Rises=F Damp=F
 DIIS: error= 2.91D-05 at cycle   5 NSaved=   5.
 NSaved= 5 IEnMin= 5 EnMin= -4.01106572096092     IErMin= 5 ErrMin= 2.91D-05
 ErrMax= 2.91D-05  0.00D+00 EMaxC= 1.00D-01 BMatC= 5.79D-09 BMatP= 1.71D-07
 IDIUse=1 WtCom= 1.00D+00 WtEn= 0.00D+00
 Coeff-Com:  0.144D-02 0.296D-02-0.313D-01-0.191D-01 0.105D+01
 Coeff:      0.144D-02 0.296D-02-0.313D-01-0.191D-01 0.105D+01
 Gap=     0.392 Goal=   None    Shift=    0.000
 RMSDP=2.25D-05 MaxDP=7.69D-05 DE=-4.26D-07 OVMax= 0.00D+00

 Cycle   6  Pass 1  IDiag  1:
 E= -4.01106574184576     Delta-E=       -0.000000020885 Rises=F Damp=F
 DIIS: error= 4.00D-06 at cycle   6 NSaved=   6.
 NSaved= 6 IEnMin= 6 EnMin= -4.01106574184576     IErMin= 6 ErrMin= 4.00D-06
 ErrMax= 4.00D-06  0.00D+00 EMaxC= 1.00D-01 BMatC= 1.89D-10 BMatP= 5.79D-09
 IDIUse=1 WtCom= 1.00D+00 WtEn= 0.00D+00
 Coeff-Com: -0.176D-05-0.197D-02 0.106D-01-0.285D-01-0.210D+00 0.123D+01
 Coeff:     -0.176D-05-0.197D-02 0.106D-01-0.285D-01-0.210D+00 0.123D+01
 Gap=     0.392 Goal=   None    Shift=    0.000
 RMSDP=6.70D-06 MaxDP=2.13D-05 DE=-2.09D-08 OVMax= 0.00D+00

 Cycle   7  Pass 1  IDiag  1:
 E= -4.01106574257477     Delta-E=       -0.000000000729 Rises=F Damp=F
 DIIS: error= 5.91D-07 at cycle   7 NSaved=   7.
 NSaved= 7 IEnMin= 7 EnMin= -4.01106574257477     IErMin= 7 ErrMin= 5.91D-07
 ErrMax= 5.91D-07  0.00D+00 EMaxC= 1.00D-01 BMatC= 2.32D-12 BMatP= 1.89D-10
 IDIUse=1 WtCom= 1.00D+00 WtEn= 0.00D+00
 Coeff-Com: -0.943D-04 0.277D-03-0.549D-03 0.201D-02 0.587D-02-0.494D-01
 Coeff-Com:  0.104D+01
 Coeff:     -0.943D-04 0.277D-03-0.549D-03 0.201D-02 0.587D-02-0.494D-01
 Coeff:      0.104D+01
 Gap=     0.392 Goal=   None    Shift=    0.000
 RMSDP=8.42D-07 MaxDP=1.92D-06 DE=-7.29D-10 OVMax= 0.00D+00

 Cycle   8  Pass 1  IDiag  1:
 E= -4.01106574258568     Delta-E=       -0.000000000011 Rises=F Damp=F
 DIIS: error= 3.06D-08 at cycle   8 NSaved=   8.
 NSaved= 8 IEnMin= 8 EnMin= -4.01106574258568     IErMin= 8 ErrMin= 3.06D-08
 ErrMax= 3.06D-08  0.00D+00 EMaxC= 1.00D-01 BMatC= 7.41D-15 BMatP= 2.32D-12
 IDIUse=1 WtCom= 1.00D+00 WtEn= 0.00D+00
 Coeff-Com:  0.757D-05-0.133D-04-0.676D-05-0.405D-04 0.448D-03-0.119D-02
 Coeff-Com: -0.340D-01 0.103D+01
 Coeff:      0.757D-05-0.133D-04-0.676D-05-0.405D-04 0.448D-03-0.119D-02
 Coeff:     -0.340D-01 0.103D+01
 Gap=     0.392 Goal=   None    Shift=    0.000
 RMSDP=4.60D-08 MaxDP=1.10D-07 DE=-1.09D-11 OVMax= 0.00D+00

 Cycle   9  Pass 1  IDiag  1:
 E= -4.01106574258571     Delta-E=       -0.000000000000 Rises=F Damp=F
 DIIS: error= 4.30D-10 at cycle   9 NSaved=   9.
 NSaved= 9 IEnMin= 9 EnMin= -4.01106574258571     IErMin= 9 ErrMin= 4.30D-10
 ErrMax= 4.30D-10  0.00D+00 EMaxC= 1.00D-01 BMatC= 1.08D-18 BMatP= 7.41D-15
 IDIUse=1 WtCom= 1.00D+00 WtEn= 0.00D+00
 Coeff-Com: -0.404D-06 0.590D-06 0.125D-05 0.151D-05-0.347D-04 0.724D-04
 Coeff-Com:  0.150D-02-0.766D-01 0.108D+01
 Coeff:     -0.404D-06 0.590D-06 0.125D-05 0.151D-05-0.347D-04 0.724D-04
 Coeff:      0.150D-02-0.766D-01 0.108D+01
 Gap=     0.392 Goal=   None    Shift=    0.000
 RMSDP=4.00D-10 MaxDP=8.15D-10 DE=-3.55D-14 OVMax= 0.00D+00

 SCF Done:  E(RHF) =  -4.01106574259     A.U. after    9 cycles
            NFock=  9  Conv=0.40D-09     -V/T= 1.8495
 KE= 4.721717943617D+00 PE=-2.128591230686D+01 EE= 6.492789609886D+00
 Leave Link  502 at Sun Dec  5 12:29:33 2021, MaxMem=   104857600 cpu:               0.1 elap:               0.2
 (Enter /usr/local/g16reva03/legacy_cpu/g16/l601.exe)
 Copying SCF densities to generalized density rwf, IOpCl= 0 IROHF=0.

 **********************************************************************

            Population analysis using the SCF density.

 **********************************************************************

 Alpha  occ. eigenvalues --   -0.57918  -0.51799  -0.41622  -0.27592
 Alpha virt. eigenvalues --    0.11590   0.33139   0.55874   0.74613
          Condensed to atoms (all electrons):
               1          2          3          4          5          6
     1  H    0.756767   0.257572  -0.008280  -0.001636   0.000009   0.000001
     2  H    0.257572   0.690464   0.055666  -0.006737  -0.000258   0.000007
     3  H   -0.008280   0.055666   0.723069   0.238494  -0.007327  -0.001593
     4  H   -0.001636  -0.006737   0.238494   0.711241   0.065032  -0.007327
     5  H    0.000009  -0.000258  -0.007327   0.065032   0.711241   0.238494
     6  H    0.000001   0.000007  -0.001593  -0.007327   0.238494   0.723069
     7  H   -0.000000   0.000000   0.000007  -0.000258  -0.006737   0.055666
     8  H   -0.000000  -0.000000   0.000001   0.000009  -0.001636  -0.008280
               7          8
     1  H   -0.000000  -0.000000
     2  H    0.000000  -0.000000
     3  H    0.000007   0.000001
     4  H   -0.000258   0.000009
     5  H   -0.006737  -0.001636
     6  H    0.055666  -0.008280
     7  H    0.690464   0.257572
     8  H    0.257572   0.756767
 Mulliken charges:
               1
     1  H   -0.004433
     2  H    0.003287
     3  H   -0.000038
     4  H    0.001183
     5  H    0.001183
     6  H   -0.000038
     7  H    0.003287
     8  H   -0.004433
 Sum of Mulliken charges =  -0.00000
 Mulliken charges with hydrogens summed into heavy atoms:
               1
 Electronic spatial extent (au):  <R**2>=            735.1945
 Charge=             -0.0000 electrons
 Dipole moment (field-independent basis, Debye):
    X=              0.0000    Y=              0.0000    Z=             -0.0000  Tot=              0.0000
 Quadrupole moment (field-independent basis, Debye-Ang):
   XX=             -7.5469   YY=             -7.5469   ZZ=             -5.4421
   XY=              0.0000   XZ=              0.0000   YZ=              0.0000
 Traceless Quadrupole moment (field-independent basis, Debye-Ang):
   XX=             -0.7016   YY=             -0.7016   ZZ=              1.4032
   XY=              0.0000   XZ=              0.0000   YZ=              0.0000
 Octapole moment (field-independent basis, Debye-Ang**2):
  XXX=              0.0000  YYY=              0.0000  ZZZ=            -68.5702  XYY=              0.0000
  XXY=              0.0000  XXZ=            -31.6968  XZZ=              0.0000  YZZ=              0.0000
  YYZ=            -31.6968  XYZ=              0.0000
 Hexadecapole moment (field-independent basis, Debye-Ang**3):
 XXXX=             -6.3480 YYYY=             -6.3480 ZZZZ=           -815.3148 XXXY=              0.0000
 XXXZ=              0.0000 YYYX=              0.0000 YYYZ=              0.0000 ZZZX=              0.0000
 ZZZY=              0.0000 XXYY=             -2.1160 XXZZ=           -191.6586 YYZZ=           -191.6586
 XXYZ=              0.0000 YYXZ=              0.0000 ZZXY=              0.0000
 N-N= 6.060339010774D+00 E-N=-2.128591230793D+01  KE= 4.721717943617D+00
 No NMR shielding tensors so no spin-rotation constants.
 Leave Link  601 at Sun Dec  5 12:29:33 2021, MaxMem=   104857600 cpu:               0.1 elap:               0.2
 (Enter /usr/local/g16reva03/legacy_cpu/g16/l9999.exe)
 1\1\GINC-USER2\SP\RHF\STO-3G\H8\MRAMIN02\05-Dec-2021\0\\#p rhf nosymm 
 output=matrix int=noraf scf=conven\\h2-sto3g\\0,1\H\H,1,1.2\H,2,1.2,1,
 180.\H,3,1.2,2,180.,1,0.,0\H,4,1.2,3,180.,1,0.,0\H,5,1.2,4,180.,1,0.,0
 \H,6,1.2,5,180.,1,0.,0\H,7,1.2,6,180.,1,0.,0\\Version=EM64L-G16RevA.03
 \HF=-4.0110657\RMSD=3.998e-10\Dipole=0.,0.,0.\Quadrupole=-0.5216157,-0
 .5216157,1.0432313,0.,0.,0.\PG=D*H [C*(H1H1H1H1.H1H1H1H1)]\\@


 ...THOSE SCIENCES ARE VAIN AND FULL OF ERRORS WHICH 
 ARE NOT BORN FROM EXPERIMENT, THE MOTHER OF CERTAINTY...

                          -- LEONARDO DA VINCI, 1452-1519

 Writing WrtUnf unformatted file "h2-8.mat"
 Gaussian matrix elements                                         Version   2 NLab=11 Len12L=8 Len4L=8
 Write SHELL TO ATOM MAP                   from file     0 offset           0 length                   8 to matrix element file.
 Write SHELL TYPES                         from file     0 offset           0 length                   8 to matrix element file.
 Write NUMBER OF PRIMITIVES PER SHELL      from file     0 offset           0 length                   8 to matrix element file.
 Write PRIMITIVE EXPONENTS                 from file     0 offset           0 length                  24 to matrix element file.
 Write CONTRACTION COEFFICIENTS            from file     0 offset           0 length                  24 to matrix element file.
 Write P(S=P) CONTRACTION COEFFICIENTS     from file     0 offset           0 length                  24 to matrix element file.
 Write COORDINATES OF EACH SHELL           from file     0 offset           0 length                  24 to matrix element file.
 Write GAUSSIAN SCALARS                    from file   501 offset           0 to matrix element file.
 Write INTEGER ISO                         from file     0 offset           0 length                   8 to matrix element file.
 Write INTEGER SPIN                        from file     0 offset           0 length                   8 to matrix element file.
 Write REAL ZEFFECTIVE                     from file     0 offset           0 length                   8 to matrix element file.
 Write REAL GFACTOR                        from file     0 offset           0 length                   8 to matrix element file.
 Write REAL ZNUCLEAR                       from file     0 offset           0 length                   8 to matrix element file.
 Write NUCLEAR GRADIENT                    from file 10584 offset           0 length                  24 to matrix element file.
 Array NUCLEAR FORCE CONSTANTS              on  file 10585 does not exist.
 Write ELECTRIC DIPOLE MOMENT              from file     0 offset           0 length                   3 to matrix element file.
 Write OVERLAP                             from file   514 offset           0 length                  36 to matrix element file.
 Write CORE HAMILTONIAN ALPHA              from file   515 offset           0 length                  36 to matrix element file.
 Write CORE HAMILTONIAN BETA               from file   515 offset          36 length                  36 to matrix element file.
 Write KINETIC ENERGY                      from file   516 offset           0 length                  36 to matrix element file.
 Write ORTHOGONAL BASIS                    from file   685 offset           0 length                  64 to matrix element file.
 Write DIPOLE INTEGRALS                    from file   518 offset           0 length                 108 to matrix element file.
 Write DIP VEL INTEGRALS                   from file   572 offset           0 length                 108 to matrix element file.
 Write R X DEL INTEGRALS                   from file   572 offset         108 length                 108 to matrix element file.
 Write ALPHA ORBITAL ENERGIES              from file     0 offset           0 length                   8 to matrix element file.
 Write ALPHA MO COEFFICIENTS               from file 10524 offset           0 length                  64 to matrix element file.
 Write ALPHA DENSITY MATRIX                from file 10528 offset           0 length                  36 to matrix element file.
 Write ALPHA SCF DENSITY MATRIX            from file 10528 offset           0 length                  36 to matrix element file.
 Write ALPHA FOCK MATRIX                   from file 10536 offset           0 length                  36 to matrix element file.
 Write REGULAR 2E INTEGRALS                to matrix element file, NR=1 ITotal=         597.
 Job cpu time:       0 days  0 hours  0 minutes  2.0 seconds.
 Elapsed time:       0 days  0 hours  0 minutes  2.7 seconds.
 File lengths (MBytes):  RWF=     72 Int=      4 D2E=      0 Chk=      8 Scr=      8
 Normal termination of Gaussian 16 at Sun Dec  5 12:29:34 2021.
