 Entering Gaussian System, Link 0=g16
 Input=h2-sto3g_4.com
 Output=h2-sto3g_4.log
 Initial command:
 /usr/local/g16reva03/legacy_cpu/g16/l1.exe "/scratch/global/g16/Gau-19262.inp" -scrdir="/scratch/global/g16/"
 Entering Link 1 = /usr/local/g16reva03/legacy_cpu/g16/l1.exe PID=     19263.
  
 Copyright (c) 1988,1990,1992,1993,1995,1998,2003,2009,2016,
            Gaussian, Inc.  All Rights Reserved.
  
 This is part of the Gaussian(R) 16 program.  It is based on
 the Gaussian(R) 09 system (copyright 2009, Gaussian, Inc.),
 the Gaussian(R) 03 system (copyright 2003, Gaussian, Inc.),
 the Gaussian(R) 98 system (copyright 1998, Gaussian, Inc.),
 the Gaussian(R) 94 system (copyright 1995, Gaussian, Inc.),
 the Gaussian 92(TM) system (copyright 1992, Gaussian, Inc.),
 the Gaussian 90(TM) system (copyright 1990, Gaussian, Inc.),
 the Gaussian 88(TM) system (copyright 1988, Gaussian, Inc.),
 the Gaussian 86(TM) system (copyright 1986, Carnegie Mellon
 University), and the Gaussian 82(TM) system (copyright 1983,
 Carnegie Mellon University). Gaussian is a federally registered
 trademark of Gaussian, Inc.
  
 This software contains proprietary and confidential information,
 including trade secrets, belonging to Gaussian, Inc.
  
 This software is provided under written license and may be
 used, copied, transmitted, or stored only in accord with that
 written license.
  
 The following legend is applicable only to US Government
 contracts under FAR:
  
                    RESTRICTED RIGHTS LEGEND
  
 Use, reproduction and disclosure by the US Government is
 subject to restrictions as set forth in subparagraphs (a)
 and (c) of the Commercial Computer Software - Restricted
 Rights clause in FAR 52.227-19.
  
 Gaussian, Inc.
 340 Quinnipiac St., Bldg. 40, Wallingford CT 06492
  
  
 ---------------------------------------------------------------
 Warning -- This program may not be used in any manner that
 competes with the business of Gaussian, Inc. or will provide
 assistance to any competitor of Gaussian, Inc.  The licensee
 of this program is prohibited from giving any competitor of
 Gaussian, Inc. access to this program.  By using this program,
 the user acknowledges that Gaussian, Inc. is engaged in the
 business of creating and licensing software in the field of
 computational chemistry and represents and warrants to the
 licensee that it is not a competitor of Gaussian, Inc. and that
 it will not use this program in any manner prohibited above.
 ---------------------------------------------------------------
  

 Cite this work as:
 Gaussian 16, Revision A.03,
 M. J. Frisch, G. W. Trucks, H. B. Schlegel, G. E. Scuseria, 
 M. A. Robb, J. R. Cheeseman, G. Scalmani, V. Barone, 
 G. A. Petersson, H. Nakatsuji, X. Li, M. Caricato, A. V. Marenich, 
 J. Bloino, B. G. Janesko, R. Gomperts, B. Mennucci, H. P. Hratchian, 
 J. V. Ortiz, A. F. Izmaylov, J. L. Sonnenberg, D. Williams-Young, 
 F. Ding, F. Lipparini, F. Egidi, J. Goings, B. Peng, A. Petrone, 
 T. Henderson, D. Ranasinghe, V. G. Zakrzewski, J. Gao, N. Rega, 
 G. Zheng, W. Liang, M. Hada, M. Ehara, K. Toyota, R. Fukuda, 
 J. Hasegawa, M. Ishida, T. Nakajima, Y. Honda, O. Kitao, H. Nakai, 
 T. Vreven, K. Throssell, J. A. Montgomery, Jr., J. E. Peralta, 
 F. Ogliaro, M. J. Bearpark, J. J. Heyd, E. N. Brothers, K. N. Kudin, 
 V. N. Staroverov, T. A. Keith, R. Kobayashi, J. Normand, 
 K. Raghavachari, A. P. Rendell, J. C. Burant, S. S. Iyengar, 
 J. Tomasi, M. Cossi, J. M. Millam, M. Klene, C. Adamo, R. Cammi, 
 J. W. Ochterski, R. L. Martin, K. Morokuma, O. Farkas, 
 J. B. Foresman, and D. J. Fox, Gaussian, Inc., Wallingford CT, 2016.
 
 ******************************************
 Gaussian 16:  EM64L-G16RevA.03 25-Dec-2016
                 5-Dec-2021 
 ******************************************
 ------------------------------------------------
 #p rhf nosymm output=matrix int=noraf scf=conven
 ------------------------------------------------
 1/38=1,172=1/1;
 2/12=2,15=1,17=6,18=5,40=1/2;
 3/25=20,28=1,30=1,116=1/1,2,3,8,20;
 4//1;
 5/5=1,29=1/2;
 6/7=2,8=2,9=2,10=2,28=1/1;
 99/5=1,6=100000,9=1/99;
 Leave Link    1 at Sun Dec  5 12:27:09 2021, MaxMem=           0 cpu:               0.1 elap:               0.4
 (Enter /usr/local/g16reva03/legacy_cpu/g16/l101.exe)
 --------
 h2-sto3g
 --------
 Symbolic Z-matrix:
 Charge =  0 Multiplicity = 1
 H
 H                    1     1.2 
 H                    2     1.2      1     180. 
 H                    3     1.2      2     180.     1     0.       0
 
 ITRead=  0  0  0  0
 MicOpt= -1 -1 -1 -1
 NAtoms=      4 NQM=        4 NQMF=       0 NMMI=      0 NMMIF=      0
                NMic=       0 NMicF=      0.
                    Isotopes and Nuclear Properties:
 (Nuclear quadrupole moments (NQMom) in fm**2, nuclear magnetic moments (NMagM)
  in nuclear magnetons)

  Atom         1           2           3           4
 IAtWgt=           1           1           1           1
 AtmWgt=   1.0078250   1.0078250   1.0078250   1.0078250
 NucSpn=           1           1           1           1
 AtZEff=  -0.0000000  -0.0000000  -0.0000000  -0.0000000
 NQMom=    0.0000000   0.0000000   0.0000000   0.0000000
 NMagM=    2.7928460   2.7928460   2.7928460   2.7928460
 AtZNuc=   1.0000000   1.0000000   1.0000000   1.0000000
 Leave Link  101 at Sun Dec  5 12:27:10 2021, MaxMem=   104857600 cpu:               0.2 elap:               0.3
 (Enter /usr/local/g16reva03/legacy_cpu/g16/l202.exe)
                          Input orientation:                          
 ---------------------------------------------------------------------
 Center     Atomic      Atomic             Coordinates (Angstroms)
 Number     Number       Type             X           Y           Z
 ---------------------------------------------------------------------
      1          1           0        0.000000    0.000000    0.000000
      2          1           0        0.000000    0.000000    1.200000
      3          1           0        0.000000    0.000000    2.400000
      4          1           0        0.000000    0.000000    3.600000
 ---------------------------------------------------------------------
                    Distance matrix (angstroms):
                    1          2          3          4
     1  H    0.000000
     2  H    1.200000   0.000000
     3  H    2.400000   1.200000   0.000000
     4  H    3.600000   2.400000   1.200000   0.000000
 Symmetry turned off by external request.
 Stoichiometry    H4
 Framework group  D*H[C*(HH.HH)]
 Deg. of freedom     2
 Full point group                 D*H     NOp   8
 Rotational constants (GHZ):           0.0000000          69.6465423          69.6465423
 Leave Link  202 at Sun Dec  5 12:27:10 2021, MaxMem=   104857600 cpu:               0.1 elap:               0.1
 (Enter /usr/local/g16reva03/legacy_cpu/g16/l301.exe)
 Standard basis: STO-3G (5D, 7F)
 Ernie: Thresh=  0.10000D-02 Tol=  0.10000D-05 Strict=F.
     4 basis functions,    12 primitive gaussians,     4 cartesian basis functions
     2 alpha electrons        2 beta electrons
       nuclear repulsion energy         1.9109177061 Hartrees.
 IExCor=    0 DFT=F Ex=HF Corr=None ExCW=0 ScaHFX=  1.000000
 ScaDFX=  1.000000  1.000000  1.000000  1.000000 ScalE2=  1.000000  1.000000
 IRadAn=      5 IRanWt=     -1 IRanGd=            0 ICorTp=0 IEmpDi=  4
 NAtoms=    4 NActive=    4 NUniq=    4 SFac= 1.00D+00 NAtFMM=   60 NAOKFM=F Big=F
 Integral buffers will be    131072 words long.
 Regular integral format.
 Two-electron integral symmetry is turned off.
 Leave Link  301 at Sun Dec  5 12:27:11 2021, MaxMem=   104857600 cpu:               0.1 elap:               0.4
 (Enter /usr/local/g16reva03/legacy_cpu/g16/l302.exe)
 NPDir=0 NMtPBC=     1 NCelOv=     1 NCel=       1 NClECP=     1 NCelD=      1
         NCelK=      1 NCelE2=     1 NClLst=     1 CellRange=     0.0.
 One-electron integrals computed using PRISM.
 NBasis=     4 RedAO= T EigKep=  4.25D-01  NBF=     4
 NBsUse=     4 1.00D-06 EigRej= -1.00D+00 NBFU=     4
 Leave Link  302 at Sun Dec  5 12:27:11 2021, MaxMem=   104857600 cpu:               0.1 elap:               0.3
 (Enter /usr/local/g16reva03/legacy_cpu/g16/l303.exe)
 DipDrv:  MaxL=1.
 Leave Link  303 at Sun Dec  5 12:27:11 2021, MaxMem=   104857600 cpu:               0.1 elap:               0.1
 (Enter /usr/local/g16reva03/legacy_cpu/g16/l308.exe)
 Leave Link  308 at Sun Dec  5 12:27:12 2021, MaxMem=   104857600 cpu:               0.1 elap:               0.1
 (Enter /usr/local/g16reva03/legacy_cpu/g16/l320.exe)
 Enter DskPsm, NBasis=   4 NBas6D=   4 NShell=   4 IDoSP=4.
 Out2e will use a cutoff of  1.00D-10
 FoFCou: FMM=F IPFlag=           0 FMFlag=           0 FMFlg1=           0
         NFxFlg=           0 DoJE=F BraDBF=F KetDBF=F FulRan=T
         wScrn=  0.000000 ICntrl=       600 IOpCl=  9 I1Cent=           0 NGrid=           0
         NMat0=    0 NMatS0=      0 NMatT0=    0 NMatD0=    0 NMtDS0=    0 NMtDT0=    0
 Symmetry not used in FoFCou.
           55 integrals produced for a total of           55.
 Leave Link  320 at Sun Dec  5 12:27:12 2021, MaxMem=   104857600 cpu:               0.1 elap:               0.4
 (Enter /usr/local/g16reva03/legacy_cpu/g16/l401.exe)
 ExpMin= 1.69D-01 ExpMax= 3.43D+00 ExpMxC= 3.43D+00 IAcc=3 IRadAn=         5 AccDes= 0.00D+00
 Harris functional with IExCor=  205 and IRadAn=       5 diagonalized for initial guess.
 HarFok:  IExCor=  205 AccDes= 0.00D+00 IRadAn=         5 IDoV= 1 UseB2=F ITyADJ=14
 ICtDFT=  3500011 ScaDFX=  1.000000  1.000000  1.000000  1.000000
 FoFCou: FMM=F IPFlag=           0 FMFlag=      100000 FMFlg1=           0
         NFxFlg=           0 DoJE=T BraDBF=F KetDBF=T FulRan=T
         wScrn=  0.000000 ICntrl=       500 IOpCl=  0 I1Cent=   200000004 NGrid=           0
         NMat0=    1 NMatS0=      1 NMatT0=    0 NMatD0=    1 NMtDS0=    0 NMtDT0=    0
 Symmetry not used in FoFCou.
 Harris En= -2.17810588337731    
 JPrj=0 DoOrth=F DoCkMO=F.
 Leave Link  401 at Sun Dec  5 12:27:13 2021, MaxMem=   104857600 cpu:               0.3 elap:               0.5
 (Enter /usr/local/g16reva03/legacy_cpu/g16/l502.exe)
 Two-electron integral symmetry not used.
 Closed shell SCF:
 Using DIIS extrapolation, IDIIS=  1040.
 Unsorted integral processing.
 NGot=   104857600 LenX=   104594088 LenY=   104593206
 Requested convergence on RMS density matrix=1.00D-08 within 128 cycles.
 Requested convergence on MAX density matrix=1.00D-06.
 Requested convergence on             energy=1.00D-06.
 No special actions if energy rises.

 Cycle   1  Pass 1  IDiag  1:
 E= -1.99916606923505    
 DIIS: error= 1.68D-02 at cycle   1 NSaved=   1.
 NSaved= 1 IEnMin= 1 EnMin= -1.99916606923505     IErMin= 1 ErrMin= 1.68D-02
 ErrMax= 1.68D-02  0.00D+00 EMaxC= 1.00D-01 BMatC= 1.27D-03 BMatP= 1.27D-03
 IDIUse=3 WtCom= 8.32D-01 WtEn= 1.68D-01
 Coeff-Com:  0.100D+01
 Coeff-En:   0.100D+01
 Coeff:      0.100D+01
 Gap=     0.543 Goal=   None    Shift=    0.000
 GapD=    0.543 DampG=2.000 DampE=0.500 DampFc=1.0000 IDamp=-1.
 RMSDP=1.61D-02 MaxDP=2.75D-02              OVMax= 0.00D+00

 Cycle   2  Pass 1  IDiag  1:
 E= -2.00338428979977     Delta-E=       -0.004218220565 Rises=F Damp=F
 DIIS: error= 5.06D-03 at cycle   2 NSaved=   2.
 NSaved= 2 IEnMin= 2 EnMin= -2.00338428979977     IErMin= 2 ErrMin= 5.06D-03
 ErrMax= 5.06D-03  0.00D+00 EMaxC= 1.00D-01 BMatC= 1.42D-04 BMatP= 1.27D-03
 IDIUse=3 WtCom= 9.49D-01 WtEn= 5.06D-02
 Coeff-Com: -0.250D+00 0.125D+01
 Coeff-En:   0.000D+00 0.100D+01
 Coeff:     -0.237D+00 0.124D+01
 Gap=     0.556 Goal=   None    Shift=    0.000
 RMSDP=7.44D-03 MaxDP=1.36D-02 DE=-4.22D-03 OVMax= 0.00D+00

 Cycle   3  Pass 1  IDiag  1:
 E= -2.00385021454645     Delta-E=       -0.000465924747 Rises=F Damp=F
 DIIS: error= 9.80D-04 at cycle   3 NSaved=   3.
 NSaved= 3 IEnMin= 3 EnMin= -2.00385021454645     IErMin= 3 ErrMin= 9.80D-04
 ErrMax= 9.80D-04  0.00D+00 EMaxC= 1.00D-01 BMatC= 4.70D-06 BMatP= 1.42D-04
 IDIUse=3 WtCom= 9.90D-01 WtEn= 9.80D-03
 Coeff-Com: -0.570D-01-0.349D-01 0.109D+01
 Coeff-En:   0.000D+00 0.000D+00 0.100D+01
 Coeff:     -0.564D-01-0.345D-01 0.109D+01
 Gap=     0.559 Goal=   None    Shift=    0.000
 RMSDP=1.49D-03 MaxDP=2.82D-03 DE=-4.66D-04 OVMax= 0.00D+00

 Cycle   4  Pass 1  IDiag  1:
 E= -2.00386748486262     Delta-E=       -0.000017270316 Rises=F Damp=F
 DIIS: error= 5.71D-06 at cycle   4 NSaved=   4.
 NSaved= 4 IEnMin= 4 EnMin= -2.00386748486262     IErMin= 4 ErrMin= 5.71D-06
 ErrMax= 5.71D-06  0.00D+00 EMaxC= 1.00D-01 BMatC= 1.32D-10 BMatP= 4.70D-06
 IDIUse=1 WtCom= 1.00D+00 WtEn= 0.00D+00
 Large coefficients: NSaved=  4 BigCof=    0.00 CofMax=   10.00 Det= 6.82D-22
 Inversion failed.  Reducing to  3 matrices.
 Coeff-Com: -0.889D-03 0.865D-02 0.992D+00
 Coeff:     -0.889D-03 0.865D-02 0.992D+00
 Gap=     0.559 Goal=   None    Shift=    0.000
 RMSDP=6.03D-06 MaxDP=9.71D-06 DE=-1.73D-05 OVMax= 0.00D+00

 Cycle   5  Pass 1  IDiag  1:
 E= -2.00386748526878     Delta-E=       -0.000000000406 Rises=F Damp=F
 DIIS: error= 7.70D-09 at cycle   5 NSaved=   4.
 NSaved= 4 IEnMin= 4 EnMin= -2.00386748526878     IErMin= 4 ErrMin= 7.70D-09
 ErrMax= 7.70D-09  0.00D+00 EMaxC= 1.00D-01 BMatC= 2.37D-16 BMatP= 1.32D-10
 IDIUse=1 WtCom= 1.00D+00 WtEn= 0.00D+00
 Large coefficients: NSaved=  4 BigCof=    0.00 CofMax=   10.00 Det= 1.03D-25
 Inversion failed.  Reducing to  3 matrices.
 Coeff-Com:  0.140D-04 0.240D-02 0.998D+00
 Coeff:      0.140D-04 0.240D-02 0.998D+00
 Gap=     0.559 Goal=   None    Shift=    0.000
 RMSDP=9.92D-09 MaxDP=1.61D-08 DE=-4.06D-10 OVMax= 0.00D+00

 SCF Done:  E(RHF) =  -2.00386748527     A.U. after    5 cycles
            NFock=  5  Conv=0.99D-08     -V/T= 1.8485
 KE= 2.361651811883D+00 PE=-8.431679891680D+00 EE= 2.155242888428D+00
 Leave Link  502 at Sun Dec  5 12:27:13 2021, MaxMem=   104857600 cpu:               0.1 elap:               0.2
 (Enter /usr/local/g16reva03/legacy_cpu/g16/l601.exe)
 Copying SCF densities to generalized density rwf, IOpCl= 0 IROHF=0.

 **********************************************************************

            Population analysis using the SCF density.

 **********************************************************************

 Alpha  occ. eigenvalues --   -0.53285  -0.34692
 Alpha virt. eigenvalues --    0.21203   0.59970
          Condensed to atoms (all electrons):
               1          2          3          4
     1  H    0.748108   0.264199  -0.007580  -0.001738
     2  H    0.264199   0.698043   0.042348  -0.007580
     3  H   -0.007580   0.042348   0.698043   0.264199
     4  H   -0.001738  -0.007580   0.264199   0.748108
 Mulliken charges:
               1
     1  H   -0.002989
     2  H    0.002989
     3  H    0.002989
     4  H   -0.002989
 Sum of Mulliken charges =  -0.00000
 Mulliken charges with hydrogens summed into heavy atoms:
               1
 Electronic spatial extent (au):  <R**2>=             79.4681
 Charge=             -0.0000 electrons
 Dipole moment (field-independent basis, Debye):
    X=              0.0000    Y=              0.0000    Z=              0.0000  Tot=              0.0000
 Quadrupole moment (field-independent basis, Debye-Ang):
   XX=             -3.7769   YY=             -3.7769   ZZ=             -2.5008
   XY=              0.0000   XZ=              0.0000   YZ=              0.0000
 Traceless Quadrupole moment (field-independent basis, Debye-Ang):
   XX=             -0.4254   YY=             -0.4254   ZZ=              0.8507
   XY=              0.0000   XZ=              0.0000   YZ=              0.0000
 Octapole moment (field-independent basis, Debye-Ang**2):
  XXX=              0.0000  YYY=              0.0000  ZZZ=            -13.5045  XYY=              0.0000
  XXY=              0.0000  XXZ=             -6.7985  XZZ=              0.0000  YZZ=              0.0000
  YYZ=             -6.7985  XYZ=              0.0000
 Hexadecapole moment (field-independent basis, Debye-Ang**3):
 XXXX=             -3.1804 YYYY=             -3.1804 ZZZZ=            -78.2405 XXXY=              0.0000
 XXXZ=              0.0000 YYYX=              0.0000 YYYZ=              0.0000 ZZZX=              0.0000
 ZZZY=              0.0000 XXYY=             -1.0601 XXZZ=            -19.7415 YYZZ=            -19.7415
 XXYZ=              0.0000 YYXZ=              0.0000 ZZXY=              0.0000
 N-N= 1.910917706100D+00 E-N=-8.431679886298D+00  KE= 2.361651811883D+00
 No NMR shielding tensors so no spin-rotation constants.
 Leave Link  601 at Sun Dec  5 12:27:14 2021, MaxMem=   104857600 cpu:               0.1 elap:               0.2
 (Enter /usr/local/g16reva03/legacy_cpu/g16/l9999.exe)
 1\1\GINC-USER2\SP\RHF\STO-3G\H4\MRAMIN02\05-Dec-2021\0\\#p rhf nosymm 
 output=matrix int=noraf scf=conven\\h2-sto3g\\0,1\H\H,1,1.2\H,2,1.2,1,
 180.\H,3,1.2,2,180.,1,0.,0\\Version=EM64L-G16RevA.03\HF=-2.0038675\RMS
 D=9.916e-09\Dipole=0.,0.,0.\Quadrupole=-0.3162489,-0.3162489,0.6324977
 ,0.,0.,0.\PG=D*H [C*(H1H1.H1H1)]\\@


 THE FIRST AND LAST THING REQUIRED OF GENIUS IS THE LOVE OF TRUTH.

                          -- GOETHE

 Writing WrtUnf unformatted file "h2-sto3g_4.mat"
 Gaussian matrix elements                                         Version   2 NLab=11 Len12L=8 Len4L=8
 Write SHELL TO ATOM MAP                   from file     0 offset           0 length                   4 to matrix element file.
 Write SHELL TYPES                         from file     0 offset           0 length                   4 to matrix element file.
 Write NUMBER OF PRIMITIVES PER SHELL      from file     0 offset           0 length                   4 to matrix element file.
 Write PRIMITIVE EXPONENTS                 from file     0 offset           0 length                  12 to matrix element file.
 Write CONTRACTION COEFFICIENTS            from file     0 offset           0 length                  12 to matrix element file.
 Write P(S=P) CONTRACTION COEFFICIENTS     from file     0 offset           0 length                  12 to matrix element file.
 Write COORDINATES OF EACH SHELL           from file     0 offset           0 length                  12 to matrix element file.
 Write GAUSSIAN SCALARS                    from file   501 offset           0 to matrix element file.
 Write INTEGER ISO                         from file     0 offset           0 length                   4 to matrix element file.
 Write INTEGER SPIN                        from file     0 offset           0 length                   4 to matrix element file.
 Write REAL ZEFFECTIVE                     from file     0 offset           0 length                   4 to matrix element file.
 Write REAL GFACTOR                        from file     0 offset           0 length                   4 to matrix element file.
 Write REAL ZNUCLEAR                       from file     0 offset           0 length                   4 to matrix element file.
 Write NUCLEAR GRADIENT                    from file 10584 offset           0 length                  12 to matrix element file.
 Array NUCLEAR FORCE CONSTANTS              on  file 10585 does not exist.
 Write ELECTRIC DIPOLE MOMENT              from file     0 offset           0 length                   3 to matrix element file.
 Write OVERLAP                             from file   514 offset           0 length                  10 to matrix element file.
 Write CORE HAMILTONIAN ALPHA              from file   515 offset           0 length                  10 to matrix element file.
 Write CORE HAMILTONIAN BETA               from file   515 offset          10 length                  10 to matrix element file.
 Write KINETIC ENERGY                      from file   516 offset           0 length                  10 to matrix element file.
 Write ORTHOGONAL BASIS                    from file   685 offset           0 length                  16 to matrix element file.
 Write DIPOLE INTEGRALS                    from file   518 offset           0 length                  30 to matrix element file.
 Write DIP VEL INTEGRALS                   from file   572 offset           0 length                  30 to matrix element file.
 Write R X DEL INTEGRALS                   from file   572 offset          30 length                  30 to matrix element file.
 Write ALPHA ORBITAL ENERGIES              from file     0 offset           0 length                   4 to matrix element file.
 Write ALPHA MO COEFFICIENTS               from file 10524 offset           0 length                  16 to matrix element file.
 Write ALPHA DENSITY MATRIX                from file 10528 offset           0 length                  10 to matrix element file.
 Write ALPHA SCF DENSITY MATRIX            from file 10528 offset           0 length                  10 to matrix element file.
 Write ALPHA FOCK MATRIX                   from file 10536 offset           0 length                  10 to matrix element file.
 Write REGULAR 2E INTEGRALS                to matrix element file, NR=1 ITotal=          55.
 Job cpu time:       0 days  0 hours  0 minutes  1.7 seconds.
 Elapsed time:       0 days  0 hours  0 minutes  3.4 seconds.
 File lengths (MBytes):  RWF=     72 Int=      4 D2E=      0 Chk=      8 Scr=      8
 Normal termination of Gaussian 16 at Sun Dec  5 12:27:14 2021.
