 Entering Gaussian System, Link 0=g16
 Input=c4.com
 Output=c4.log
 Initial command:
 /usr/local/g16reva03/legacy_cpu/g16/l1.exe "/scratch/global/g16/Gau-30860.inp" -scrdir="/scratch/global/g16/"
 Entering Link 1 = /usr/local/g16reva03/legacy_cpu/g16/l1.exe PID=     30861.
  
 Copyright (c) 1988,1990,1992,1993,1995,1998,2003,2009,2016,
            Gaussian, Inc.  All Rights Reserved.
  
 This is part of the Gaussian(R) 16 program.  It is based on
 the Gaussian(R) 09 system (copyright 2009, Gaussian, Inc.),
 the Gaussian(R) 03 system (copyright 2003, Gaussian, Inc.),
 the Gaussian(R) 98 system (copyright 1998, Gaussian, Inc.),
 the Gaussian(R) 94 system (copyright 1995, Gaussian, Inc.),
 the Gaussian 92(TM) system (copyright 1992, Gaussian, Inc.),
 the Gaussian 90(TM) system (copyright 1990, Gaussian, Inc.),
 the Gaussian 88(TM) system (copyright 1988, Gaussian, Inc.),
 the Gaussian 86(TM) system (copyright 1986, Carnegie Mellon
 University), and the Gaussian 82(TM) system (copyright 1983,
 Carnegie Mellon University). Gaussian is a federally registered
 trademark of Gaussian, Inc.
  
 This software contains proprietary and confidential information,
 including trade secrets, belonging to Gaussian, Inc.
  
 This software is provided under written license and may be
 used, copied, transmitted, or stored only in accord with that
 written license.
  
 The following legend is applicable only to US Government
 contracts under FAR:
  
                    RESTRICTED RIGHTS LEGEND
  
 Use, reproduction and disclosure by the US Government is
 subject to restrictions as set forth in subparagraphs (a)
 and (c) of the Commercial Computer Software - Restricted
 Rights clause in FAR 52.227-19.
  
 Gaussian, Inc.
 340 Quinnipiac St., Bldg. 40, Wallingford CT 06492
  
  
 ---------------------------------------------------------------
 Warning -- This program may not be used in any manner that
 competes with the business of Gaussian, Inc. or will provide
 assistance to any competitor of Gaussian, Inc.  The licensee
 of this program is prohibited from giving any competitor of
 Gaussian, Inc. access to this program.  By using this program,
 the user acknowledges that Gaussian, Inc. is engaged in the
 business of creating and licensing software in the field of
 computational chemistry and represents and warrants to the
 licensee that it is not a competitor of Gaussian, Inc. and that
 it will not use this program in any manner prohibited above.
 ---------------------------------------------------------------
  

 Cite this work as:
 Gaussian 16, Revision A.03,
 M. J. Frisch, G. W. Trucks, H. B. Schlegel, G. E. Scuseria, 
 M. A. Robb, J. R. Cheeseman, G. Scalmani, V. Barone, 
 G. A. Petersson, H. Nakatsuji, X. Li, M. Caricato, A. V. Marenich, 
 J. Bloino, B. G. Janesko, R. Gomperts, B. Mennucci, H. P. Hratchian, 
 J. V. Ortiz, A. F. Izmaylov, J. L. Sonnenberg, D. Williams-Young, 
 F. Ding, F. Lipparini, F. Egidi, J. Goings, B. Peng, A. Petrone, 
 T. Henderson, D. Ranasinghe, V. G. Zakrzewski, J. Gao, N. Rega, 
 G. Zheng, W. Liang, M. Hada, M. Ehara, K. Toyota, R. Fukuda, 
 J. Hasegawa, M. Ishida, T. Nakajima, Y. Honda, O. Kitao, H. Nakai, 
 T. Vreven, K. Throssell, J. A. Montgomery, Jr., J. E. Peralta, 
 F. Ogliaro, M. J. Bearpark, J. J. Heyd, E. N. Brothers, K. N. Kudin, 
 V. N. Staroverov, T. A. Keith, R. Kobayashi, J. Normand, 
 K. Raghavachari, A. P. Rendell, J. C. Burant, S. S. Iyengar, 
 J. Tomasi, M. Cossi, J. M. Millam, M. Klene, C. Adamo, R. Cammi, 
 J. W. Ochterski, R. L. Martin, K. Morokuma, O. Farkas, 
 J. B. Foresman, and D. J. Fox, Gaussian, Inc., Wallingford CT, 2016.
 
 ******************************************
 Gaussian 16:  EM64L-G16RevA.03 25-Dec-2016
                 5-Dec-2021 
 ******************************************
 ------------------------------------------------
 #P rhf nosymm output=matrix int=noraf scf=conven
 ------------------------------------------------
 1/38=1,172=1/1;
 2/12=2,15=1,17=6,18=5,40=1/2;
 3/25=20,28=1,30=1,116=1/1,2,3,8,20;
 4//1;
 5/5=1,29=1/2;
 6/7=2,8=2,9=2,10=2,28=1/1;
 99/5=1,6=100000,9=1/99;
 Leave Link    1 at Sun Dec  5 19:02:06 2021, MaxMem=           0 cpu:               0.1 elap:               0.3
 (Enter /usr/local/g16reva03/legacy_cpu/g16/l101.exe)
 --
 c4
 --
 Symbolic Z-matrix:
 Charge =  0 Multiplicity = 1
 C
 C                    1     1. 
 H                    1     1.       2     110.6 
 H                    1     1.       2     110.6    3    -120.     0
 
 ITRead=  0  0  0  0
 MicOpt= -1 -1 -1 -1
 NAtoms=      4 NQM=        4 NQMF=       0 NMMI=      0 NMMIF=      0
                NMic=       0 NMicF=      0.
                    Isotopes and Nuclear Properties:
 (Nuclear quadrupole moments (NQMom) in fm**2, nuclear magnetic moments (NMagM)
  in nuclear magnetons)

  Atom         1           2           3           4
 IAtWgt=          12          12           1           1
 AtmWgt=  12.0000000  12.0000000   1.0078250   1.0078250
 NucSpn=           0           0           1           1
 AtZEff=  -0.0000000  -0.0000000  -0.0000000  -0.0000000
 NQMom=    0.0000000   0.0000000   0.0000000   0.0000000
 NMagM=    0.0000000   0.0000000   2.7928460   2.7928460
 AtZNuc=   6.0000000   6.0000000   1.0000000   1.0000000
 Leave Link  101 at Sun Dec  5 19:02:06 2021, MaxMem=   104857600 cpu:               0.2 elap:               0.2
 (Enter /usr/local/g16reva03/legacy_cpu/g16/l202.exe)
                          Input orientation:                          
 ---------------------------------------------------------------------
 Center     Atomic      Atomic             Coordinates (Angstroms)
 Number     Number       Type             X           Y           Z
 ---------------------------------------------------------------------
      1          6           0        0.000000    0.000000    0.000000
      2          6           0        0.000000    0.000000    1.000000
      3          1           0        0.936060    0.000000   -0.351842
      4          1           0       -0.468030    0.810651   -0.351842
 ---------------------------------------------------------------------
                    Distance matrix (angstroms):
                    1          2          3          4
     1  C    0.000000
     2  C    1.000000   0.000000
     3  H    1.000000   1.644288   0.000000
     4  H    1.000000   1.644288   1.621303   0.000000
 Symmetry turned off by external request.
 Stoichiometry    C2H2
 Framework group  CS[SG(C2),X(H2)]
 Deg. of freedom     4
 Full point group                 CS      NOp   2
 Rotational constants (GHZ):         305.6178394          65.1544932          57.7431724
 Leave Link  202 at Sun Dec  5 19:02:06 2021, MaxMem=   104857600 cpu:               0.0 elap:               0.0
 (Enter /usr/local/g16reva03/legacy_cpu/g16/l301.exe)
 Standard basis: STO-3G (5D, 7F)
 Ernie: Thresh=  0.10000D-02 Tol=  0.10000D-05 Strict=F.
    12 basis functions,    36 primitive gaussians,    12 cartesian basis functions
     7 alpha electrons        7 beta electrons
       nuclear repulsion energy        29.5888269102 Hartrees.
 IExCor=    0 DFT=F Ex=HF Corr=None ExCW=0 ScaHFX=  1.000000
 ScaDFX=  1.000000  1.000000  1.000000  1.000000 ScalE2=  1.000000  1.000000
 IRadAn=      5 IRanWt=     -1 IRanGd=            0 ICorTp=0 IEmpDi=  4
 NAtoms=    4 NActive=    4 NUniq=    4 SFac= 1.00D+00 NAtFMM=   60 NAOKFM=F Big=F
 Integral buffers will be    131072 words long.
 Regular integral format.
 Two-electron integral symmetry is turned off.
 Leave Link  301 at Sun Dec  5 19:02:06 2021, MaxMem=   104857600 cpu:               0.1 elap:               0.1
 (Enter /usr/local/g16reva03/legacy_cpu/g16/l302.exe)
 NPDir=0 NMtPBC=     1 NCelOv=     1 NCel=       1 NClECP=     1 NCelD=      1
         NCelK=      1 NCelE2=     1 NClLst=     1 CellRange=     0.0.
 One-electron integrals computed using PRISM.
 NBasis=    12 RedAO= T EigKep=  5.55D-02  NBF=    12
 NBsUse=    12 1.00D-06 EigRej= -1.00D+00 NBFU=    12
 Leave Link  302 at Sun Dec  5 19:02:07 2021, MaxMem=   104857600 cpu:               0.1 elap:               0.2
 (Enter /usr/local/g16reva03/legacy_cpu/g16/l303.exe)
 DipDrv:  MaxL=1.
 Leave Link  303 at Sun Dec  5 19:02:07 2021, MaxMem=   104857600 cpu:               0.1 elap:               0.1
 (Enter /usr/local/g16reva03/legacy_cpu/g16/l308.exe)
 Leave Link  308 at Sun Dec  5 19:02:07 2021, MaxMem=   104857600 cpu:               0.1 elap:               0.1
 (Enter /usr/local/g16reva03/legacy_cpu/g16/l320.exe)
 Enter DskPsm, NBasis=  12 NBas6D=  12 NShell=   6 IDoSP=4.
 Out2e will use a cutoff of  1.00D-10
 FoFCou: FMM=F IPFlag=           0 FMFlag=           0 FMFlg1=           0
         NFxFlg=           0 DoJE=F BraDBF=F KetDBF=F FulRan=T
         wScrn=  0.000000 ICntrl=       600 IOpCl=  9 I1Cent=           0 NGrid=           0
         NMat0=    0 NMatS0=      0 NMatT0=    0 NMatD0=    0 NMtDS0=    0 NMtDT0=    0
 Symmetry not used in FoFCou.
         1813 integrals produced for a total of         1813.
 Leave Link  320 at Sun Dec  5 19:02:07 2021, MaxMem=   104857600 cpu:               0.2 elap:               0.2
 (Enter /usr/local/g16reva03/legacy_cpu/g16/l401.exe)
 ExpMin= 1.69D-01 ExpMax= 7.16D+01 ExpMxC= 7.16D+01 IAcc=3 IRadAn=         5 AccDes= 0.00D+00
 Harris functional with IExCor=  205 and IRadAn=       5 diagonalized for initial guess.
 HarFok:  IExCor=  205 AccDes= 0.00D+00 IRadAn=         5 IDoV= 1 UseB2=F ITyADJ=14
 ICtDFT=  3500011 ScaDFX=  1.000000  1.000000  1.000000  1.000000
 FoFCou: FMM=F IPFlag=           0 FMFlag=      100000 FMFlg1=           0
         NFxFlg=           0 DoJE=T BraDBF=F KetDBF=T FulRan=T
         wScrn=  0.000000 ICntrl=       500 IOpCl=  0 I1Cent=   200000004 NGrid=           0
         NMat0=    1 NMatS0=      1 NMatT0=    0 NMatD0=    1 NMtDS0=    0 NMtDT0=    0
 Symmetry not used in FoFCou.
 Harris En= -75.5949650384223    
 JPrj=0 DoOrth=F DoCkMO=F.
 Leave Link  401 at Sun Dec  5 19:02:08 2021, MaxMem=   104857600 cpu:               0.4 elap:               0.4
 (Enter /usr/local/g16reva03/legacy_cpu/g16/l502.exe)
 Two-electron integral symmetry not used.
 Closed shell SCF:
 Using DIIS extrapolation, IDIIS=  1040.
 Unsorted integral processing.
 NGot=   104857600 LenX=   104594064 LenY=   104593182
 Requested convergence on RMS density matrix=1.00D-08 within 128 cycles.
 Requested convergence on MAX density matrix=1.00D-06.
 Requested convergence on             energy=1.00D-06.
 No special actions if energy rises.

 Cycle   1  Pass 1  IDiag  1:
 E= -75.4295244416336    
 DIIS: error= 4.78D-02 at cycle   1 NSaved=   1.
 NSaved= 1 IEnMin= 1 EnMin= -75.4295244416336     IErMin= 1 ErrMin= 4.78D-02
 ErrMax= 4.78D-02  0.00D+00 EMaxC= 1.00D-01 BMatC= 3.41D-02 BMatP= 3.41D-02
 IDIUse=3 WtCom= 5.22D-01 WtEn= 4.78D-01
 Coeff-Com:  0.100D+01
 Coeff-En:   0.100D+01
 Coeff:      0.100D+01
 Gap=     0.582 Goal=   None    Shift=    0.000
 GapD=    0.582 DampG=2.000 DampE=0.500 DampFc=1.0000 IDamp=-1.
 RMSDP=2.08D-02 MaxDP=9.36D-02              OVMax= 0.00D+00

 Cycle   2  Pass 1  IDiag  1:
 E= -75.4775800791858     Delta-E=       -0.048055637552 Rises=F Damp=F
 DIIS: error= 7.78D-03 at cycle   2 NSaved=   2.
 NSaved= 2 IEnMin= 2 EnMin= -75.4775800791858     IErMin= 2 ErrMin= 7.78D-03
 ErrMax= 7.78D-03  0.00D+00 EMaxC= 1.00D-01 BMatC= 5.42D-04 BMatP= 3.41D-02
 IDIUse=3 WtCom= 9.22D-01 WtEn= 7.78D-02
 Coeff-Com: -0.103D+00 0.110D+01
 Coeff-En:   0.000D+00 0.100D+01
 Coeff:     -0.950D-01 0.110D+01
 Gap=     0.602 Goal=   None    Shift=    0.000
 RMSDP=3.04D-03 MaxDP=1.24D-02 DE=-4.81D-02 OVMax= 0.00D+00

 Cycle   3  Pass 1  IDiag  1:
 E= -75.4786655159144     Delta-E=       -0.001085436729 Rises=F Damp=F
 DIIS: error= 1.84D-03 at cycle   3 NSaved=   3.
 NSaved= 3 IEnMin= 3 EnMin= -75.4786655159144     IErMin= 3 ErrMin= 1.84D-03
 ErrMax= 1.84D-03  0.00D+00 EMaxC= 1.00D-01 BMatC= 2.87D-05 BMatP= 5.42D-04
 IDIUse=3 WtCom= 9.82D-01 WtEn= 1.84D-02
 Coeff-Com:  0.421D-01-0.471D+00 0.143D+01
 Coeff-En:   0.000D+00 0.000D+00 0.100D+01
 Coeff:      0.414D-01-0.462D+00 0.142D+01
 Gap=     0.602 Goal=   None    Shift=    0.000
 RMSDP=1.04D-03 MaxDP=3.85D-03 DE=-1.09D-03 OVMax= 0.00D+00

 Cycle   4  Pass 1  IDiag  1:
 E= -75.4787489992903     Delta-E=       -0.000083483376 Rises=F Damp=F
 DIIS: error= 2.78D-04 at cycle   4 NSaved=   4.
 NSaved= 4 IEnMin= 4 EnMin= -75.4787489992903     IErMin= 4 ErrMin= 2.78D-04
 ErrMax= 2.78D-04  0.00D+00 EMaxC= 1.00D-01 BMatC= 1.03D-06 BMatP= 2.87D-05
 IDIUse=3 WtCom= 9.97D-01 WtEn= 2.78D-03
 Coeff-Com: -0.111D-01 0.127D+00-0.499D+00 0.138D+01
 Coeff-En:   0.000D+00 0.000D+00 0.000D+00 0.100D+01
 Coeff:     -0.111D-01 0.126D+00-0.498D+00 0.138D+01
 Gap=     0.602 Goal=   None    Shift=    0.000
 RMSDP=2.33D-04 MaxDP=6.56D-04 DE=-8.35D-05 OVMax= 0.00D+00

 Cycle   5  Pass 1  IDiag  1:
 E= -75.4787528940024     Delta-E=       -0.000003894712 Rises=F Damp=F
 DIIS: error= 6.31D-05 at cycle   5 NSaved=   5.
 NSaved= 5 IEnMin= 5 EnMin= -75.4787528940024     IErMin= 5 ErrMin= 6.31D-05
 ErrMax= 6.31D-05  0.00D+00 EMaxC= 1.00D-01 BMatC= 7.04D-08 BMatP= 1.03D-06
 IDIUse=1 WtCom= 1.00D+00 WtEn= 0.00D+00
 Coeff-Com:  0.123D-02-0.127D-01 0.810D-01-0.450D+00 0.138D+01
 Coeff:      0.123D-02-0.127D-01 0.810D-01-0.450D+00 0.138D+01
 Gap=     0.602 Goal=   None    Shift=    0.000
 RMSDP=7.32D-05 MaxDP=2.34D-04 DE=-3.89D-06 OVMax= 0.00D+00

 Cycle   6  Pass 1  IDiag  1:
 E= -75.4787530751346     Delta-E=       -0.000000181132 Rises=F Damp=F
 DIIS: error= 1.45D-05 at cycle   6 NSaved=   6.
 NSaved= 6 IEnMin= 6 EnMin= -75.4787530751346     IErMin= 6 ErrMin= 1.45D-05
 ErrMax= 1.45D-05  0.00D+00 EMaxC= 1.00D-01 BMatC= 4.03D-09 BMatP= 7.04D-08
 IDIUse=1 WtCom= 1.00D+00 WtEn= 0.00D+00
 Coeff-Com:  0.768D-03-0.890D-02 0.373D-01-0.137D+00 0.258D+00 0.850D+00
 Coeff:      0.768D-03-0.890D-02 0.373D-01-0.137D+00 0.258D+00 0.850D+00
 Gap=     0.602 Goal=   None    Shift=    0.000
 RMSDP=9.12D-06 MaxDP=3.33D-05 DE=-1.81D-07 OVMax= 0.00D+00

 Cycle   7  Pass 1  IDiag  1:
 E= -75.4787530821826     Delta-E=       -0.000000007048 Rises=F Damp=F
 DIIS: error= 4.33D-06 at cycle   7 NSaved=   7.
 NSaved= 7 IEnMin= 7 EnMin= -75.4787530821826     IErMin= 7 ErrMin= 4.33D-06
 ErrMax= 4.33D-06  0.00D+00 EMaxC= 1.00D-01 BMatC= 3.43D-10 BMatP= 4.03D-09
 IDIUse=1 WtCom= 1.00D+00 WtEn= 0.00D+00
 Coeff-Com: -0.324D-03 0.362D-02-0.162D-01 0.686D-01-0.171D+00-0.314D+00
 Coeff-Com:  0.143D+01
 Coeff:     -0.324D-03 0.362D-02-0.162D-01 0.686D-01-0.171D+00-0.314D+00
 Coeff:      0.143D+01
 Gap=     0.602 Goal=   None    Shift=    0.000
 RMSDP=5.02D-06 MaxDP=2.01D-05 DE=-7.05D-09 OVMax= 0.00D+00

 Cycle   8  Pass 1  IDiag  1:
 E= -75.4787530833816     Delta-E=       -0.000000001199 Rises=F Damp=F
 DIIS: error= 8.31D-07 at cycle   8 NSaved=   8.
 NSaved= 8 IEnMin= 8 EnMin= -75.4787530833816     IErMin= 8 ErrMin= 8.31D-07
 ErrMax= 8.31D-07  0.00D+00 EMaxC= 1.00D-01 BMatC= 1.59D-11 BMatP= 3.43D-10
 IDIUse=1 WtCom= 1.00D+00 WtEn= 0.00D+00
 Coeff-Com:  0.118D-03-0.128D-02 0.595D-02-0.268D-01 0.740D-01 0.934D-01
 Coeff-Com: -0.680D+00 0.153D+01
 Coeff:      0.118D-03-0.128D-02 0.595D-02-0.268D-01 0.740D-01 0.934D-01
 Coeff:     -0.680D+00 0.153D+01
 Gap=     0.602 Goal=   None    Shift=    0.000
 RMSDP=1.22D-06 MaxDP=4.36D-06 DE=-1.20D-09 OVMax= 0.00D+00

 Cycle   9  Pass 1  IDiag  1:
 E= -75.4787530834364     Delta-E=       -0.000000000055 Rises=F Damp=F
 DIIS: error= 5.62D-08 at cycle   9 NSaved=   9.
 NSaved= 9 IEnMin= 9 EnMin= -75.4787530834364     IErMin= 9 ErrMin= 5.62D-08
 ErrMax= 5.62D-08  0.00D+00 EMaxC= 1.00D-01 BMatC= 5.64D-14 BMatP= 1.59D-11
 IDIUse=1 WtCom= 1.00D+00 WtEn= 0.00D+00
 Coeff-Com: -0.109D-04 0.112D-03-0.537D-03 0.246D-02-0.710D-02-0.969D-02
 Coeff-Com:  0.703D-01-0.184D+00 0.113D+01
 Coeff:     -0.109D-04 0.112D-03-0.537D-03 0.246D-02-0.710D-02-0.969D-02
 Coeff:      0.703D-01-0.184D+00 0.113D+01
 Gap=     0.602 Goal=   None    Shift=    0.000
 RMSDP=6.17D-08 MaxDP=2.59D-07 DE=-5.49D-11 OVMax= 0.00D+00

 Cycle  10  Pass 1  IDiag  1:
 E= -75.4787530834367     Delta-E=       -0.000000000000 Rises=F Damp=F
 DIIS: error= 8.93D-09 at cycle  10 NSaved=  10.
 NSaved=10 IEnMin=10 EnMin= -75.4787530834367     IErMin=10 ErrMin= 8.93D-09
 ErrMax= 8.93D-09  0.00D+00 EMaxC= 1.00D-01 BMatC= 1.41D-15 BMatP= 5.64D-14
 IDIUse=1 WtCom= 1.00D+00 WtEn= 0.00D+00
 Coeff-Com:  0.243D-07 0.131D-05 0.289D-06-0.182D-04 0.135D-03 0.689D-03
 Coeff-Com: -0.324D-02 0.106D-01-0.238D+00 0.123D+01
 Coeff:      0.243D-07 0.131D-05 0.289D-06-0.182D-04 0.135D-03 0.689D-03
 Coeff:     -0.324D-02 0.106D-01-0.238D+00 0.123D+01
 Gap=     0.602 Goal=   None    Shift=    0.000
 RMSDP=7.64D-09 MaxDP=2.86D-08 DE=-2.42D-13 OVMax= 0.00D+00

 SCF Done:  E(RHF) =  -75.4787530834     A.U. after   10 cycles
            NFock= 10  Conv=0.76D-08     -V/T= 1.9772
 KE= 7.724156580036D+01 PE=-2.366146247451D+02 EE= 5.430547895111D+01
 Leave Link  502 at Sun Dec  5 19:02:08 2021, MaxMem=   104857600 cpu:               0.1 elap:               0.2
 (Enter /usr/local/g16reva03/legacy_cpu/g16/l601.exe)
 Copying SCF densities to generalized density rwf, IOpCl= 0 IROHF=0.

 **********************************************************************

            Population analysis using the SCF density.

 **********************************************************************

 Alpha  occ. eigenvalues --  -11.04747 -11.01600  -1.14281  -0.69519  -0.66166
 Alpha  occ. eigenvalues --   -0.46165  -0.35626
 Alpha virt. eigenvalues --    0.24612   0.41870   0.82846   0.86430   1.70707
          Condensed to atoms (all electrons):
               1          2          3          4
     1  C    5.147045   0.622668   0.363685   0.363685
     2  C    0.622668   5.344302  -0.021110  -0.021110
     3  H    0.363685  -0.021110   0.449629  -0.003119
     4  H    0.363685  -0.021110  -0.003119   0.449629
 Mulliken charges:
               1
     1  C   -0.497082
     2  C    0.075251
     3  H    0.210915
     4  H    0.210915
 Sum of Mulliken charges =   0.00000
 Mulliken charges with hydrogens summed into heavy atoms:
               1
     1  C   -0.075251
     2  C    0.075251
 Electronic spatial extent (au):  <R**2>=             54.7004
 Charge=              0.0000 electrons
 Dipole moment (field-independent basis, Debye):
    X=              0.5661    Y=              0.9806    Z=             -1.8664  Tot=              2.1830
 Quadrupole moment (field-independent basis, Debye-Ang):
   XX=             -9.6611   YY=            -10.5510   ZZ=            -14.9361
   XY=             -0.7707   XZ=             -0.2358   YZ=             -0.4084
 Traceless Quadrupole moment (field-independent basis, Debye-Ang):
   XX=              2.0550   YY=              1.1650   ZZ=             -3.2200
   XY=             -0.7707   XZ=             -0.2358   YZ=             -0.4084
 Octapole moment (field-independent basis, Debye-Ang**2):
  XXX=              0.1573  YYY=             -0.7262  ZZZ=            -20.3823  XYY=             -0.7164
  XXY=             -0.2421  XXZ=             -4.4141  XZZ=             -0.2810  YZZ=             -0.4867
  YYZ=             -4.6387  XYZ=             -0.1945
 Hexadecapole moment (field-independent basis, Debye-Ang**3):
 XXXX=            -11.5275 YYYY=            -10.8032 ZZZZ=            -54.5811 XXXY=              0.4782
 XXXZ=             -0.1229 YYYX=              0.1490 YYYZ=              0.2209 ZZZX=              0.2528
 ZZZY=              0.4379 XXYY=             -3.8485 XXZZ=             -8.5388 YYZZ=             -8.7375
 XXYZ=              0.0736 YYXZ=              0.2929 ZZXY=             -0.1721
 N-N= 2.958882691018D+01 E-N=-2.366146247999D+02  KE= 7.724156580036D+01
 No NMR shielding tensors so no spin-rotation constants.
 Leave Link  601 at Sun Dec  5 19:02:08 2021, MaxMem=   104857600 cpu:               0.2 elap:               0.1
 (Enter /usr/local/g16reva03/legacy_cpu/g16/l9999.exe)
 1\1\GINC-USER2\SP\RHF\STO-3G\C2H2\MRAMIN02\05-Dec-2021\0\\#P rhf nosym
 m output=matrix int=noraf scf=conven\\c4\\0,1\C\C,1,1.\H,1,1.,2,110.6\
 H,1,1.,2,110.6,3,-120.,0\\Version=EM64L-G16RevA.03\HF=-75.4787531\RMSD
 =7.643e-09\Dipole=0.2227322,0.3857835,-0.7343113\Quadrupole=1.5278167,
 0.8661803,-2.393997,-0.5729939,-0.1753065,-0.3036399\PG=CS [SG(C2),X(H
 2)]\\@


 The chemist is a guest at the physicist's table and
 frequently dines well.
                   -- Richard Bersohn

 Writing WrtUnf unformatted file "c4.mat"
 Gaussian matrix elements                                         Version   2 NLab=11 Len12L=8 Len4L=8
 Write SHELL TO ATOM MAP                   from file     0 offset           0 length                   6 to matrix element file.
 Write SHELL TYPES                         from file     0 offset           0 length                   6 to matrix element file.
 Write NUMBER OF PRIMITIVES PER SHELL      from file     0 offset           0 length                   6 to matrix element file.
 Write PRIMITIVE EXPONENTS                 from file     0 offset           0 length                  18 to matrix element file.
 Write CONTRACTION COEFFICIENTS            from file     0 offset           0 length                  18 to matrix element file.
 Write P(S=P) CONTRACTION COEFFICIENTS     from file     0 offset           0 length                  18 to matrix element file.
 Write COORDINATES OF EACH SHELL           from file     0 offset           0 length                  18 to matrix element file.
 Write BONDS PER ATOM                      from file     0 offset           0 length                   4 to matrix element file.
 Write BONDED ATOMS                        from file     0 offset           0 length                   6 to matrix element file.
 Write BOND TYPES                          from file     0 offset           0 length                   6 to matrix element file.
 Write GAUSSIAN SCALARS                    from file   501 offset           0 to matrix element file.
 Write INTEGER ISO                         from file     0 offset           0 length                   4 to matrix element file.
 Write INTEGER SPIN                        from file     0 offset           0 length                   4 to matrix element file.
 Write REAL ZEFFECTIVE                     from file     0 offset           0 length                   4 to matrix element file.
 Write REAL GFACTOR                        from file     0 offset           0 length                   4 to matrix element file.
 Write REAL ZNUCLEAR                       from file     0 offset           0 length                   4 to matrix element file.
 Write NUCLEAR GRADIENT                    from file 10584 offset           0 length                  12 to matrix element file.
 Array NUCLEAR FORCE CONSTANTS              on  file 10585 does not exist.
 Write ELECTRIC DIPOLE MOMENT              from file     0 offset           0 length                   3 to matrix element file.
 Write OVERLAP                             from file   514 offset           0 length                  78 to matrix element file.
 Write CORE HAMILTONIAN ALPHA              from file   515 offset           0 length                  78 to matrix element file.
 Write CORE HAMILTONIAN BETA               from file   515 offset          78 length                  78 to matrix element file.
 Write KINETIC ENERGY                      from file   516 offset           0 length                  78 to matrix element file.
 Write ORTHOGONAL BASIS                    from file   685 offset           0 length                 144 to matrix element file.
 Write DIPOLE INTEGRALS                    from file   518 offset           0 length                 234 to matrix element file.
 Write DIP VEL INTEGRALS                   from file   572 offset           0 length                 234 to matrix element file.
 Write R X DEL INTEGRALS                   from file   572 offset         234 length                 234 to matrix element file.
 Write ALPHA ORBITAL ENERGIES              from file     0 offset           0 length                  12 to matrix element file.
 Write ALPHA MO COEFFICIENTS               from file 10524 offset           0 length                 144 to matrix element file.
 Write ALPHA DENSITY MATRIX                from file 10528 offset           0 length                  78 to matrix element file.
 Write ALPHA SCF DENSITY MATRIX            from file 10528 offset           0 length                  78 to matrix element file.
 Write ALPHA FOCK MATRIX                   from file 10536 offset           0 length                  78 to matrix element file.
 Write REGULAR 2E INTEGRALS                to matrix element file, NR=1 ITotal=        1813.
 Job cpu time:       0 days  0 hours  0 minutes  1.9 seconds.
 Elapsed time:       0 days  0 hours  0 minutes  2.3 seconds.
 File lengths (MBytes):  RWF=     72 Int=      4 D2E=      0 Chk=      8 Scr=      8
 Normal termination of Gaussian 16 at Sun Dec  5 19:02:08 2021.
