************************************************************
This is node106 of the Cardinal research cluster.
Date: Mon Dec  6 18:50:26 EST 2021
************************************************************
 Set GAUSS_MDEF to "12GB".
 Set GAUSS_PDEF to "8".
 Entering Gaussian System, Link 0=g16
 Initial command:
 /usr/local/g16reva03/legacy_cpu/g16/l1.exe "/tmp/tmp.N8MQGKkJfP/Gau-16256.inp" -scrdir="/tmp/tmp.N8MQGKkJfP/"
 Default is to use a total of   8 processors:
                                8 via shared-memory
                                1 via Linda
 Entering Link 1 = /usr/local/g16reva03/legacy_cpu/g16/l1.exe PID=     16257.
  
 Copyright (c) 1988,1990,1992,1993,1995,1998,2003,2009,2016,
            Gaussian, Inc.  All Rights Reserved.
  
 This is part of the Gaussian(R) 16 program.  It is based on
 the Gaussian(R) 09 system (copyright 2009, Gaussian, Inc.),
 the Gaussian(R) 03 system (copyright 2003, Gaussian, Inc.),
 the Gaussian(R) 98 system (copyright 1998, Gaussian, Inc.),
 the Gaussian(R) 94 system (copyright 1995, Gaussian, Inc.),
 the Gaussian 92(TM) system (copyright 1992, Gaussian, Inc.),
 the Gaussian 90(TM) system (copyright 1990, Gaussian, Inc.),
 the Gaussian 88(TM) system (copyright 1988, Gaussian, Inc.),
 the Gaussian 86(TM) system (copyright 1986, Carnegie Mellon
 University), and the Gaussian 82(TM) system (copyright 1983,
 Carnegie Mellon University). Gaussian is a federally registered
 trademark of Gaussian, Inc.
  
 This software contains proprietary and confidential information,
 including trade secrets, belonging to Gaussian, Inc.
  
 This software is provided under written license and may be
 used, copied, transmitted, or stored only in accord with that
 written license.
  
 The following legend is applicable only to US Government
 contracts under FAR:
  
                    RESTRICTED RIGHTS LEGEND
  
 Use, reproduction and disclosure by the US Government is
 subject to restrictions as set forth in subparagraphs (a)
 and (c) of the Commercial Computer Software - Restricted
 Rights clause in FAR 52.227-19.
  
 Gaussian, Inc.
 340 Quinnipiac St., Bldg. 40, Wallingford CT 06492
  
  
 ---------------------------------------------------------------
 Warning -- This program may not be used in any manner that
 competes with the business of Gaussian, Inc. or will provide
 assistance to any competitor of Gaussian, Inc.  The licensee
 of this program is prohibited from giving any competitor of
 Gaussian, Inc. access to this program.  By using this program,
 the user acknowledges that Gaussian, Inc. is engaged in the
 business of creating and licensing software in the field of
 computational chemistry and represents and warrants to the
 licensee that it is not a competitor of Gaussian, Inc. and that
 it will not use this program in any manner prohibited above.
 ---------------------------------------------------------------
  

 Cite this work as:
 Gaussian 16, Revision A.03,
 M. J. Frisch, G. W. Trucks, H. B. Schlegel, G. E. Scuseria, 
 M. A. Robb, J. R. Cheeseman, G. Scalmani, V. Barone, 
 G. A. Petersson, H. Nakatsuji, X. Li, M. Caricato, A. V. Marenich, 
 J. Bloino, B. G. Janesko, R. Gomperts, B. Mennucci, H. P. Hratchian, 
 J. V. Ortiz, A. F. Izmaylov, J. L. Sonnenberg, D. Williams-Young, 
 F. Ding, F. Lipparini, F. Egidi, J. Goings, B. Peng, A. Petrone, 
 T. Henderson, D. Ranasinghe, V. G. Zakrzewski, J. Gao, N. Rega, 
 G. Zheng, W. Liang, M. Hada, M. Ehara, K. Toyota, R. Fukuda, 
 J. Hasegawa, M. Ishida, T. Nakajima, Y. Honda, O. Kitao, H. Nakai, 
 T. Vreven, K. Throssell, J. A. Montgomery, Jr., J. E. Peralta, 
 F. Ogliaro, M. J. Bearpark, J. J. Heyd, E. N. Brothers, K. N. Kudin, 
 V. N. Staroverov, T. A. Keith, R. Kobayashi, J. Normand, 
 K. Raghavachari, A. P. Rendell, J. C. Burant, S. S. Iyengar, 
 J. Tomasi, M. Cossi, J. M. Millam, M. Klene, C. Adamo, R. Cammi, 
 J. W. Ochterski, R. L. Martin, K. Morokuma, O. Farkas, 
 J. B. Foresman, and D. J. Fox, Gaussian, Inc., Wallingford CT, 2016.
 
 ******************************************
 Gaussian 16:  EM64L-G16RevA.03 25-Dec-2016
                 6-Dec-2021 
 ******************************************
 ---------------------------------------------
 #P nosymm int=noraff scf=conven output=matrix
 ---------------------------------------------
 1/38=1,172=1/1;
 2/12=2,15=1,17=6,18=5,40=1/2;
 3/25=20,28=1,30=1/1,2,3,8,20;
 4//1;
 5/5=1,29=1/2;
 6/7=2,8=2,9=2,10=2,28=1/1;
 99/5=1,6=100000,9=1/99;
 Leave Link    1 at Mon Dec  6 18:50:26 2021, MaxMem=           0 cpu:               0.5 elap:               0.1
 (Enter /usr/local/g16reva03/legacy_cpu/g16/l101.exe)
 ----
 test
 ----
 Symbolic Z-matrix:
 Charge =  0 Multiplicity = 1
 c
 o                    1     1.4 
 
 ITRead=  0  0
 MicOpt= -1 -1
 NAtoms=      2 NQM=        2 NQMF=       0 NMMI=      0 NMMIF=      0
                NMic=       0 NMicF=      0.
                    Isotopes and Nuclear Properties:
 (Nuclear quadrupole moments (NQMom) in fm**2, nuclear magnetic moments (NMagM)
  in nuclear magnetons)

  Atom         1           2
 IAtWgt=          12          16
 AtmWgt=  12.0000000  15.9949146
 NucSpn=           0           0
 AtZEff=  -0.0000000  -0.0000000
 NQMom=    0.0000000   0.0000000
 NMagM=    0.0000000   0.0000000
 AtZNuc=   6.0000000   8.0000000
 Leave Link  101 at Mon Dec  6 18:50:26 2021, MaxMem=  1610612736 cpu:               1.3 elap:               0.2
 (Enter /usr/local/g16reva03/legacy_cpu/g16/l202.exe)
                          Input orientation:                          
 ---------------------------------------------------------------------
 Center     Atomic      Atomic             Coordinates (Angstroms)
 Number     Number       Type             X           Y           Z
 ---------------------------------------------------------------------
      1          6           0        0.000000    0.000000    0.000000
      2          8           0        0.000000    0.000000    1.400000
 ---------------------------------------------------------------------
 Symmetry turned off by external request.
 Stoichiometry    CO
 Framework group  C*V[C*(CO)]
 Deg. of freedom     1
 Full point group                 C*V     NOp   4
 Rotational constants (GHZ):           0.0000000          37.6077285          37.6077285
 Leave Link  202 at Mon Dec  6 18:50:26 2021, MaxMem=  1610612736 cpu:               0.1 elap:               0.0
 (Enter /usr/local/g16reva03/legacy_cpu/g16/l301.exe)
 Standard basis: STO-3G (5D, 7F)
 Ernie: Thresh=  0.10000D-02 Tol=  0.10000D-05 Strict=F.
    10 basis functions,    30 primitive gaussians,    10 cartesian basis functions
     7 alpha electrons        7 beta electrons
       nuclear repulsion energy        18.1432186601 Hartrees.
 IExCor=    0 DFT=F Ex=HF Corr=None ExCW=0 ScaHFX=  1.000000
 ScaDFX=  1.000000  1.000000  1.000000  1.000000 ScalE2=  1.000000  1.000000
 IRadAn=      5 IRanWt=     -1 IRanGd=            0 ICorTp=0 IEmpDi=  4
 NAtoms=    2 NActive=    2 NUniq=    2 SFac= 1.00D+00 NAtFMM=   60 NAOKFM=F Big=F
 Integral buffers will be    131072 words long.
 Regular integral format.
 Two-electron integral symmetry is turned off.
 Leave Link  301 at Mon Dec  6 18:50:26 2021, MaxMem=  1610612736 cpu:               0.8 elap:               0.1
 (Enter /usr/local/g16reva03/legacy_cpu/g16/l302.exe)
 NPDir=0 NMtPBC=     1 NCelOv=     1 NCel=       1 NClECP=     1 NCelD=      1
         NCelK=      1 NCelE2=     1 NClLst=     1 CellRange=     0.0.
 One-electron integrals computed using PRISM.
 NBasis=    10 RedAO= T EigKep=  3.82D-01  NBF=    10
 NBsUse=    10 1.00D-06 EigRej= -1.00D+00 NBFU=    10
 Leave Link  302 at Mon Dec  6 18:50:26 2021, MaxMem=  1610612736 cpu:               1.1 elap:               0.2
 (Enter /usr/local/g16reva03/legacy_cpu/g16/l303.exe)
 DipDrv:  MaxL=1.
 Leave Link  303 at Mon Dec  6 18:50:26 2021, MaxMem=  1610612736 cpu:               0.3 elap:               0.1
 (Enter /usr/local/g16reva03/legacy_cpu/g16/l308.exe)
 Leave Link  308 at Mon Dec  6 18:50:27 2021, MaxMem=  1610612736 cpu:               0.3 elap:               0.1
 (Enter /usr/local/g16reva03/legacy_cpu/g16/l320.exe)
 Enter DskPsm, NBasis=  10 NBas6D=  10 NShell=   4 IDoSP=4.
 Out2e will use a cutoff of  1.00D-10
 FoFCou: FMM=F IPFlag=           0 FMFlag=           0 FMFlg1=           0
         NFxFlg=           0 DoJE=F BraDBF=F KetDBF=F FulRan=T
         wScrn=  0.000000 ICntrl=       600 IOpCl=  9 I1Cent=           0 NGrid=           0
         NMat0=    0 NMatS0=      0 NMatT0=    0 NMatD0=    0 NMtDS0=    0 NMtDT0=    0
 Symmetry not used in FoFCou.
          511 integrals produced for a total of          511.
 Leave Link  320 at Mon Dec  6 18:50:27 2021, MaxMem=  1610612736 cpu:               1.6 elap:               0.2
 (Enter /usr/local/g16reva03/legacy_cpu/g16/l401.exe)
 ExpMin= 2.22D-01 ExpMax= 1.31D+02 ExpMxC= 1.31D+02 IAcc=3 IRadAn=         5 AccDes= 0.00D+00
 Harris functional with IExCor=  205 and IRadAn=       5 diagonalized for initial guess.
 HarFok:  IExCor=  205 AccDes= 0.00D+00 IRadAn=         5 IDoV= 1 UseB2=F ITyADJ=14
 ICtDFT=  3500011 ScaDFX=  1.000000  1.000000  1.000000  1.000000
 FoFCou: FMM=F IPFlag=           0 FMFlag=      100000 FMFlg1=           0
         NFxFlg=           0 DoJE=T BraDBF=F KetDBF=T FulRan=T
         wScrn=  0.000000 ICntrl=       500 IOpCl=  0 I1Cent=   200000004 NGrid=           0
         NMat0=    1 NMatS0=      1 NMatT0=    0 NMatD0=    1 NMtDS0=    0 NMtDT0=    0
 Symmetry not used in FoFCou.
 Harris En= -111.117235536947    
 JPrj=0 DoOrth=F DoCkMO=F.
 Leave Link  401 at Mon Dec  6 18:50:27 2021, MaxMem=  1610612736 cpu:               1.6 elap:               0.3
 (Enter /usr/local/g16reva03/legacy_cpu/g16/l502.exe)
 Two-electron integral symmetry not used.
 Closed shell SCF:
 Using DIIS extrapolation, IDIIS=  1040.
 Unsorted integral processing.
 NGot=  1610612736 LenX=  1610349226 LenY=  1610348344
 Requested convergence on RMS density matrix=1.00D-08 within 128 cycles.
 Requested convergence on MAX density matrix=1.00D-06.
 Requested convergence on             energy=1.00D-06.
 No special actions if energy rises.

 Cycle   1  Pass 1  IDiag  1:
 E= -111.111215695501    
 DIIS: error= 1.89D-02 at cycle   1 NSaved=   1.
 NSaved= 1 IEnMin= 1 EnMin= -111.111215695501     IErMin= 1 ErrMin= 1.89D-02
 ErrMax= 1.89D-02  0.00D+00 EMaxC= 1.00D-01 BMatC= 3.92D-03 BMatP= 3.92D-03
 IDIUse=3 WtCom= 8.11D-01 WtEn= 1.89D-01
 Coeff-Com:  0.100D+01
 Coeff-En:   0.100D+01
 Coeff:      0.100D+01
 Gap=     0.640 Goal=   None    Shift=    0.000
 GapD=    0.640 DampG=2.000 DampE=0.500 DampFc=1.0000 IDamp=-1.
 RMSDP=5.63D-03 MaxDP=3.12D-02              OVMax= 0.00D+00

 Cycle   2  Pass 1  IDiag  1:
 E= -111.112648522793     Delta-E=       -0.001432827292 Rises=F Damp=F
 DIIS: error= 8.57D-03 at cycle   2 NSaved=   2.
 NSaved= 2 IEnMin= 2 EnMin= -111.112648522793     IErMin= 2 ErrMin= 8.57D-03
 ErrMax= 8.57D-03  0.00D+00 EMaxC= 1.00D-01 BMatC= 6.26D-04 BMatP= 3.92D-03
 IDIUse=3 WtCom= 9.14D-01 WtEn= 8.57D-02
 Coeff-Com:  0.160D+00 0.840D+00
 Coeff-En:   0.000D+00 0.100D+01
 Coeff:      0.146D+00 0.854D+00
 Gap=     0.632 Goal=   None    Shift=    0.000
 RMSDP=4.76D-03 MaxDP=2.21D-02 DE=-1.43D-03 OVMax= 0.00D+00

 Cycle   3  Pass 1  IDiag  1:
 E= -111.113133577210     Delta-E=       -0.000485054417 Rises=F Damp=F
 DIIS: error= 7.67D-03 at cycle   3 NSaved=   3.
 NSaved= 3 IEnMin= 3 EnMin= -111.113133577210     IErMin= 3 ErrMin= 7.67D-03
 ErrMax= 7.67D-03  0.00D+00 EMaxC= 1.00D-01 BMatC= 7.66D-04 BMatP= 6.26D-04
 IDIUse=3 WtCom= 1.02D-01 WtEn= 8.98D-01
 Coeff-Com: -0.622D-01 0.538D+00 0.525D+00
 Coeff-En:   0.000D+00 0.325D+00 0.675D+00
 Coeff:     -0.637D-02 0.347D+00 0.660D+00
 Gap=     0.620 Goal=   None    Shift=    0.000
 RMSDP=3.27D-03 MaxDP=1.52D-02 DE=-4.85D-04 OVMax= 0.00D+00

 Cycle   4  Pass 1  IDiag  1:
 E= -111.113866083596     Delta-E=       -0.000732506386 Rises=F Damp=F
 DIIS: error= 3.40D-03 at cycle   4 NSaved=   4.
 NSaved= 4 IEnMin= 4 EnMin= -111.113866083596     IErMin= 4 ErrMin= 3.40D-03
 ErrMax= 3.40D-03  0.00D+00 EMaxC= 1.00D-01 BMatC= 9.50D-05 BMatP= 6.26D-04
 IDIUse=3 WtCom= 9.66D-01 WtEn= 3.40D-02
 Coeff-Com:  0.365D-01-0.894D+00-0.164D+00 0.202D+01
 Coeff-En:   0.000D+00 0.000D+00 0.000D+00 0.100D+01
 Coeff:      0.353D-01-0.863D+00-0.159D+00 0.199D+01
 Gap=     0.625 Goal=   None    Shift=    0.000
 RMSDP=2.91D-03 MaxDP=1.14D-02 DE=-7.33D-04 OVMax= 0.00D+00

 Cycle   5  Pass 1  IDiag  1:
 E= -111.114148936719     Delta-E=       -0.000282853123 Rises=F Damp=F
 DIIS: error= 1.54D-04 at cycle   5 NSaved=   5.
 NSaved= 5 IEnMin= 5 EnMin= -111.114148936719     IErMin= 5 ErrMin= 1.54D-04
 ErrMax= 1.54D-04  0.00D+00 EMaxC= 1.00D-01 BMatC= 2.59D-07 BMatP= 9.50D-05
 IDIUse=3 WtCom= 9.98D-01 WtEn= 1.54D-03
 Coeff-Com: -0.142D-02 0.414D-01-0.151D-01-0.109D+00 0.108D+01
 Coeff-En:   0.000D+00 0.000D+00 0.000D+00 0.000D+00 0.100D+01
 Coeff:     -0.142D-02 0.413D-01-0.151D-01-0.109D+00 0.108D+01
 Gap=     0.624 Goal=   None    Shift=    0.000
 RMSDP=1.35D-04 MaxDP=7.61D-04 DE=-2.83D-04 OVMax= 0.00D+00

 Cycle   6  Pass 1  IDiag  1:
 E= -111.114149442334     Delta-E=       -0.000000505616 Rises=F Damp=F
 DIIS: error= 6.46D-06 at cycle   6 NSaved=   6.
 NSaved= 6 IEnMin= 6 EnMin= -111.114149442334     IErMin= 6 ErrMin= 6.46D-06
 ErrMax= 6.46D-06  0.00D+00 EMaxC= 1.00D-01 BMatC= 2.97D-10 BMatP= 2.59D-07
 IDIUse=1 WtCom= 1.00D+00 WtEn= 0.00D+00
 Coeff-Com:  0.464D-03-0.149D-01 0.443D-02 0.389D-01-0.324D+00 0.129D+01
 Coeff:      0.464D-03-0.149D-01 0.443D-02 0.389D-01-0.324D+00 0.129D+01
 Gap=     0.624 Goal=   None    Shift=    0.000
 RMSDP=4.94D-06 MaxDP=2.10D-05 DE=-5.06D-07 OVMax= 0.00D+00

 Cycle   7  Pass 1  IDiag  1:
 E= -111.114149442945     Delta-E=       -0.000000000611 Rises=F Damp=F
 DIIS: error= 5.70D-07 at cycle   7 NSaved=   7.
 NSaved= 7 IEnMin= 7 EnMin= -111.114149442945     IErMin= 7 ErrMin= 5.70D-07
 ErrMax= 5.70D-07  0.00D+00 EMaxC= 1.00D-01 BMatC= 3.98D-12 BMatP= 2.97D-10
 IDIUse=1 WtCom= 1.00D+00 WtEn= 0.00D+00
 Coeff-Com: -0.384D-04 0.144D-02-0.638D-03-0.404D-02 0.357D-01-0.203D+00
 Coeff-Com:  0.117D+01
 Coeff:     -0.384D-04 0.144D-02-0.638D-03-0.404D-02 0.357D-01-0.203D+00
 Coeff:      0.117D+01
 Gap=     0.624 Goal=   None    Shift=    0.000
 RMSDP=8.87D-07 MaxDP=4.67D-06 DE=-6.11D-10 OVMax= 0.00D+00

 Cycle   8  Pass 1  IDiag  1:
 E= -111.114149442960     Delta-E=       -0.000000000015 Rises=F Damp=F
 DIIS: error= 5.18D-08 at cycle   8 NSaved=   8.
 NSaved= 8 IEnMin= 8 EnMin= -111.114149442960     IErMin= 8 ErrMin= 5.18D-08
 ErrMax= 5.18D-08  0.00D+00 EMaxC= 1.00D-01 BMatC= 3.25D-14 BMatP= 3.98D-12
 IDIUse=1 WtCom= 1.00D+00 WtEn= 0.00D+00
 Coeff-Com: -0.191D-05 0.254D-04 0.262D-04-0.791D-06 0.220D-03 0.136D-01
 Coeff-Com: -0.191D+00 0.118D+01
 Coeff:     -0.191D-05 0.254D-04 0.262D-04-0.791D-06 0.220D-03 0.136D-01
 Coeff:     -0.191D+00 0.118D+01
 Gap=     0.624 Goal=   None    Shift=    0.000
 RMSDP=8.42D-08 MaxDP=4.14D-07 DE=-1.52D-11 OVMax= 0.00D+00

 Cycle   9  Pass 1  IDiag  1:
 E= -111.114149442960     Delta-E=       -0.000000000000 Rises=F Damp=F
 DIIS: error= 1.61D-09 at cycle   9 NSaved=   9.
 NSaved= 9 IEnMin= 9 EnMin= -111.114149442960     IErMin= 9 ErrMin= 1.61D-09
 ErrMax= 1.61D-09  0.00D+00 EMaxC= 1.00D-01 BMatC= 3.44D-17 BMatP= 3.25D-14
 IDIUse=1 WtCom= 1.00D+00 WtEn= 0.00D+00
 Coeff-Com:  0.279D-08-0.151D-06-0.324D-07 0.597D-06-0.260D-05 0.506D-04
 Coeff-Com:  0.185D-02-0.823D-02 0.101D+01
 Coeff:      0.279D-08-0.151D-06-0.324D-07 0.597D-06-0.260D-05 0.506D-04
 Coeff:      0.185D-02-0.823D-02 0.101D+01
 Gap=     0.624 Goal=   None    Shift=    0.000
 RMSDP=2.49D-09 MaxDP=1.19D-08 DE=-1.99D-13 OVMax= 0.00D+00

 SCF Done:  E(RHF) =  -111.114149443     A.U. after    9 cycles
            NFock=  9  Conv=0.25D-08     -V/T= 2.0069
 KE= 1.103568128868D+02 PE=-2.997783635200D+02 EE= 6.016418253015D+01
 Leave Link  502 at Mon Dec  6 18:50:27 2021, MaxMem=  1610612736 cpu:               0.4 elap:               0.1
 (Enter /usr/local/g16reva03/legacy_cpu/g16/l601.exe)
 Copying SCF densities to generalized density rwf, IOpCl= 0 IROHF=0.

 **********************************************************************

            Population analysis using the SCF density.

 **********************************************************************

 Alpha  occ. eigenvalues --  -20.29869 -11.09505  -1.26126  -0.67346  -0.41164
 Alpha  occ. eigenvalues --   -0.40325  -0.40325
 Alpha virt. eigenvalues --    0.22103   0.22103   0.65098
          Condensed to atoms (all electrons):
               1          2
     1  C    5.397846   0.393741
     2  O    0.393741   7.814673
 Mulliken charges:
               1
     1  C    0.208413
     2  O   -0.208413
 Sum of Mulliken charges =  -0.00000
 Mulliken charges with hydrogens summed into heavy atoms:
               1
     1  C    0.208413
     2  O   -0.208413
 Electronic spatial extent (au):  <R**2>=             78.2415
 Charge=             -0.0000 electrons
 Dipole moment (field-independent basis, Debye):
    X=              0.0000    Y=             -0.0000    Z=             -0.6350  Tot=              0.6350
 Quadrupole moment (field-independent basis, Debye-Ang):
   XX=             -8.7387   YY=             -8.7387   ZZ=            -12.4458
   XY=              0.0000   XZ=             -0.0000   YZ=             -0.0000
 Traceless Quadrupole moment (field-independent basis, Debye-Ang):
   XX=              1.2357   YY=              1.2357   ZZ=             -2.4714
   XY=              0.0000   XZ=             -0.0000   YZ=             -0.0000
 Octapole moment (field-independent basis, Debye-Ang**2):
  XXX=              0.0000  YYY=              0.0000  ZZZ=            -22.1877  XYY=              0.0000
  XXY=              0.0000  XXZ=             -6.0195  XZZ=             -0.0000  YZZ=             -0.0000
  YYZ=             -6.0195  XYZ=              0.0000
 Hexadecapole moment (field-independent basis, Debye-Ang**3):
 XXXX=             -5.3822 YYYY=             -5.3822 ZZZZ=            -64.6069 XXXY=              0.0000
 XXXZ=             -0.0000 YYYX=              0.0000 YYYZ=             -0.0000 ZZZX=             -0.0000
 ZZZY=             -0.0000 XXYY=             -1.7941 XXZZ=            -10.6567 YYZZ=            -10.6567
 XXYZ=             -0.0000 YYXZ=             -0.0000 ZZXY=              0.0000
 N-N= 1.814321866011D+01 E-N=-2.997783634963D+02  KE= 1.103568128868D+02
 No NMR shielding tensors so no spin-rotation constants.
 Leave Link  601 at Mon Dec  6 18:50:27 2021, MaxMem=  1610612736 cpu:               1.0 elap:               0.2
 (Enter /usr/local/g16reva03/legacy_cpu/g16/l9999.exe)
 1\1\GINC-NODE106\SP\RHF\STO-3G\C1O1\ROOT\06-Dec-2021\0\\#P nosymm int=
 noraff scf=conven output=matrix\\test\\0,1\C\O,1,1.4\\Version=EM64L-G1
 6RevA.03\HF=-111.1141494\RMSD=2.493e-09\Dipole=0.,0.,-0.2498178\Quadru
 pole=0.9187268,0.9187268,-1.8374537,0.,0.,0.\PG=C*V [C*(C1O1)]\\@


 Sometimes the fool who rushes in gets the job done.
                                    -- Al Bernstein

 Writing WrtUnf unformatted file "co.mat"
 Gaussian matrix elements                                         Version   2 NLab=11 Len12L=8 Len4L=8
 Write SHELL TO ATOM MAP                   from file     0 offset           0 length                   4 to matrix element file.
 Write SHELL TYPES                         from file     0 offset           0 length                   4 to matrix element file.
 Write NUMBER OF PRIMITIVES PER SHELL      from file     0 offset           0 length                   4 to matrix element file.
 Write PRIMITIVE EXPONENTS                 from file     0 offset           0 length                  12 to matrix element file.
 Write CONTRACTION COEFFICIENTS            from file     0 offset           0 length                  12 to matrix element file.
 Write P(S=P) CONTRACTION COEFFICIENTS     from file     0 offset           0 length                  12 to matrix element file.
 Write COORDINATES OF EACH SHELL           from file     0 offset           0 length                  12 to matrix element file.
 Write BONDS PER ATOM                      from file     0 offset           0 length                   2 to matrix element file.
 Write BONDED ATOMS                        from file     0 offset           0 length                   2 to matrix element file.
 Write BOND TYPES                          from file     0 offset           0 length                   2 to matrix element file.
 Write GAUSSIAN SCALARS                    from file   501 offset           0 to matrix element file.
 Write INTEGER ISO                         from file     0 offset           0 length                   2 to matrix element file.
 Write REAL ZEFFECTIVE                     from file     0 offset           0 length                   2 to matrix element file.
 Write REAL ZNUCLEAR                       from file     0 offset           0 length                   2 to matrix element file.
 Write NUCLEAR GRADIENT                    from file 10584 offset           0 length                   6 to matrix element file.
 Array NUCLEAR FORCE CONSTANTS              on  file 10585 does not exist.
 Write ELECTRIC DIPOLE MOMENT              from file     0 offset           0 length                   3 to matrix element file.
 Write OVERLAP                             from file   514 offset           0 length                  55 to matrix element file.
 Write CORE HAMILTONIAN ALPHA              from file   515 offset           0 length                  55 to matrix element file.
 Write CORE HAMILTONIAN BETA               from file   515 offset          55 length                  55 to matrix element file.
 Write KINETIC ENERGY                      from file   516 offset           0 length                  55 to matrix element file.
 Write ORTHOGONAL BASIS                    from file   685 offset           0 length                 100 to matrix element file.
 Write DIPOLE INTEGRALS                    from file   518 offset           0 length                 165 to matrix element file.
 Write DIP VEL INTEGRALS                   from file   572 offset           0 length                 165 to matrix element file.
 Write R X DEL INTEGRALS                   from file   572 offset         165 length                 165 to matrix element file.
 Write ALPHA ORBITAL ENERGIES              from file     0 offset           0 length                  10 to matrix element file.
 Write ALPHA MO COEFFICIENTS               from file 10524 offset           0 length                 100 to matrix element file.
 Write ALPHA DENSITY MATRIX                from file 10528 offset           0 length                  55 to matrix element file.
 Write ALPHA SCF DENSITY MATRIX            from file 10528 offset           0 length                  55 to matrix element file.
 Write ALPHA FOCK MATRIX                   from file 10536 offset           0 length                  55 to matrix element file.
 Write REGULAR 2E INTEGRALS                to matrix element file, NR=1 ITotal=         511.
 Job cpu time:       0 days  0 hours  0 minutes 10.8 seconds.
 Elapsed time:       0 days  0 hours  0 minutes  1.7 seconds.
 File lengths (MBytes):  RWF=      6 Int=      1 D2E=      0 Chk=      1 Scr=      1
 Normal termination of Gaussian 16 at Mon Dec  6 18:50:28 2021.
