 Entering Gaussian System, Link 0=g16
 Input=h2_rhf.com
 Output=h2_rhf.log
 Initial command:
 /usr/local/g16reva03/legacy_cpu/g16/l1.exe "/scratch/global/g16/Gau-25099.inp" -scrdir="/scratch/global/g16/"
 Entering Link 1 = /usr/local/g16reva03/legacy_cpu/g16/l1.exe PID=     25100.
  
 Copyright (c) 1988,1990,1992,1993,1995,1998,2003,2009,2016,
            Gaussian, Inc.  All Rights Reserved.
  
 This is part of the Gaussian(R) 16 program.  It is based on
 the Gaussian(R) 09 system (copyright 2009, Gaussian, Inc.),
 the Gaussian(R) 03 system (copyright 2003, Gaussian, Inc.),
 the Gaussian(R) 98 system (copyright 1998, Gaussian, Inc.),
 the Gaussian(R) 94 system (copyright 1995, Gaussian, Inc.),
 the Gaussian 92(TM) system (copyright 1992, Gaussian, Inc.),
 the Gaussian 90(TM) system (copyright 1990, Gaussian, Inc.),
 the Gaussian 88(TM) system (copyright 1988, Gaussian, Inc.),
 the Gaussian 86(TM) system (copyright 1986, Carnegie Mellon
 University), and the Gaussian 82(TM) system (copyright 1983,
 Carnegie Mellon University). Gaussian is a federally registered
 trademark of Gaussian, Inc.
  
 This software contains proprietary and confidential information,
 including trade secrets, belonging to Gaussian, Inc.
  
 This software is provided under written license and may be
 used, copied, transmitted, or stored only in accord with that
 written license.
  
 The following legend is applicable only to US Government
 contracts under FAR:
  
                    RESTRICTED RIGHTS LEGEND
  
 Use, reproduction and disclosure by the US Government is
 subject to restrictions as set forth in subparagraphs (a)
 and (c) of the Commercial Computer Software - Restricted
 Rights clause in FAR 52.227-19.
  
 Gaussian, Inc.
 340 Quinnipiac St., Bldg. 40, Wallingford CT 06492
  
  
 ---------------------------------------------------------------
 Warning -- This program may not be used in any manner that
 competes with the business of Gaussian, Inc. or will provide
 assistance to any competitor of Gaussian, Inc.  The licensee
 of this program is prohibited from giving any competitor of
 Gaussian, Inc. access to this program.  By using this program,
 the user acknowledges that Gaussian, Inc. is engaged in the
 business of creating and licensing software in the field of
 computational chemistry and represents and warrants to the
 licensee that it is not a competitor of Gaussian, Inc. and that
 it will not use this program in any manner prohibited above.
 ---------------------------------------------------------------
  

 Cite this work as:
 Gaussian 16, Revision A.03,
 M. J. Frisch, G. W. Trucks, H. B. Schlegel, G. E. Scuseria, 
 M. A. Robb, J. R. Cheeseman, G. Scalmani, V. Barone, 
 G. A. Petersson, H. Nakatsuji, X. Li, M. Caricato, A. V. Marenich, 
 J. Bloino, B. G. Janesko, R. Gomperts, B. Mennucci, H. P. Hratchian, 
 J. V. Ortiz, A. F. Izmaylov, J. L. Sonnenberg, D. Williams-Young, 
 F. Ding, F. Lipparini, F. Egidi, J. Goings, B. Peng, A. Petrone, 
 T. Henderson, D. Ranasinghe, V. G. Zakrzewski, J. Gao, N. Rega, 
 G. Zheng, W. Liang, M. Hada, M. Ehara, K. Toyota, R. Fukuda, 
 J. Hasegawa, M. Ishida, T. Nakajima, Y. Honda, O. Kitao, H. Nakai, 
 T. Vreven, K. Throssell, J. A. Montgomery, Jr., J. E. Peralta, 
 F. Ogliaro, M. J. Bearpark, J. J. Heyd, E. N. Brothers, K. N. Kudin, 
 V. N. Staroverov, T. A. Keith, R. Kobayashi, J. Normand, 
 K. Raghavachari, A. P. Rendell, J. C. Burant, S. S. Iyengar, 
 J. Tomasi, M. Cossi, J. M. Millam, M. Klene, C. Adamo, R. Cammi, 
 J. W. Ochterski, R. L. Martin, K. Morokuma, O. Farkas, 
 J. B. Foresman, and D. J. Fox, Gaussian, Inc., Wallingford CT, 2016.
 
 ******************************************
 Gaussian 16:  EM64L-G16RevA.03 25-Dec-2016
                24-Nov-2021 
 ******************************************
 ------------------------------------------------
 #P rhf nosymm output=matrix int=noraf scf=conven
 ------------------------------------------------
 1/38=1,172=1/1;
 2/12=2,15=1,17=6,18=5,40=1/2;
 3/25=20,28=1,30=1,116=1/1,2,3,8,20;
 4//1;
 5/5=1,29=1/2;
 6/7=2,8=2,9=2,10=2,28=1/1;
 99/5=1,6=100000,9=1/99;
 Leave Link    1 at Wed Nov 24 18:46:01 2021, MaxMem=           0 cpu:               0.1 elap:               0.4
 (Enter /usr/local/g16reva03/legacy_cpu/g16/l101.exe)
 ----
 test
 ----
 Symbolic Z-matrix:
 Charge =  0 Multiplicity = 1
 H
 H                    1     1.1 
 
 ITRead=  0  0
 MicOpt= -1 -1
 NAtoms=      2 NQM=        2 NQMF=       0 NMMI=      0 NMMIF=      0
                NMic=       0 NMicF=      0.
                    Isotopes and Nuclear Properties:
 (Nuclear quadrupole moments (NQMom) in fm**2, nuclear magnetic moments (NMagM)
  in nuclear magnetons)

  Atom         1           2
 IAtWgt=           1           1
 AtmWgt=   1.0078250   1.0078250
 NucSpn=           1           1
 AtZEff=  -0.0000000  -0.0000000
 NQMom=    0.0000000   0.0000000
 NMagM=    2.7928460   2.7928460
 AtZNuc=   1.0000000   1.0000000
 Leave Link  101 at Wed Nov 24 18:46:01 2021, MaxMem=   104857600 cpu:               0.2 elap:               0.2
 (Enter /usr/local/g16reva03/legacy_cpu/g16/l202.exe)
                          Input orientation:                          
 ---------------------------------------------------------------------
 Center     Atomic      Atomic             Coordinates (Angstroms)
 Number     Number       Type             X           Y           Z
 ---------------------------------------------------------------------
      1          1           0        0.000000    0.000000    0.000000
      2          1           0        0.000000    0.000000    1.100000
 ---------------------------------------------------------------------
 Symmetry turned off by external request.
 Stoichiometry    H2
 Framework group  D*H[C*(H.H)]
 Deg. of freedom     1
 Full point group                 D*H     NOp   8
 Rotational constants (GHZ):           0.0000000         828.8514123         828.8514123
 Leave Link  202 at Wed Nov 24 18:46:01 2021, MaxMem=   104857600 cpu:               0.0 elap:               0.1
 (Enter /usr/local/g16reva03/legacy_cpu/g16/l301.exe)
 Standard basis: STO-3G (5D, 7F)
 Ernie: Thresh=  0.10000D-02 Tol=  0.10000D-05 Strict=F.
     2 basis functions,     6 primitive gaussians,     2 cartesian basis functions
     1 alpha electrons        1 beta electrons
       nuclear repulsion energy         0.4810701917 Hartrees.
 IExCor=    0 DFT=F Ex=HF Corr=None ExCW=0 ScaHFX=  1.000000
 ScaDFX=  1.000000  1.000000  1.000000  1.000000 ScalE2=  1.000000  1.000000
 IRadAn=      5 IRanWt=     -1 IRanGd=            0 ICorTp=0 IEmpDi=  4
 NAtoms=    2 NActive=    2 NUniq=    2 SFac= 1.00D+00 NAtFMM=   60 NAOKFM=F Big=F
 Integral buffers will be    131072 words long.
 Regular integral format.
 Two-electron integral symmetry is turned off.
 Leave Link  301 at Wed Nov 24 18:46:02 2021, MaxMem=   104857600 cpu:               0.1 elap:               0.3
 (Enter /usr/local/g16reva03/legacy_cpu/g16/l302.exe)
 NPDir=0 NMtPBC=     1 NCelOv=     1 NCel=       1 NClECP=     1 NCelD=      1
         NCelK=      1 NCelE2=     1 NClLst=     1 CellRange=     0.0.
 One-electron integrals computed using PRISM.
 NBasis=     2 RedAO= T EigKep=  5.60D-01  NBF=     2
 NBsUse=     2 1.00D-06 EigRej= -1.00D+00 NBFU=     2
 Leave Link  302 at Wed Nov 24 18:46:02 2021, MaxMem=   104857600 cpu:               0.1 elap:               0.2
 (Enter /usr/local/g16reva03/legacy_cpu/g16/l303.exe)
 DipDrv:  MaxL=1.
 Leave Link  303 at Wed Nov 24 18:46:02 2021, MaxMem=   104857600 cpu:               0.1 elap:               0.1
 (Enter /usr/local/g16reva03/legacy_cpu/g16/l308.exe)
 Leave Link  308 at Wed Nov 24 18:46:03 2021, MaxMem=   104857600 cpu:               0.1 elap:               0.3
 (Enter /usr/local/g16reva03/legacy_cpu/g16/l320.exe)
 Enter DskPsm, NBasis=   2 NBas6D=   2 NShell=   2 IDoSP=4.
 Out2e will use a cutoff of  1.00D-10
 FoFCou: FMM=F IPFlag=           0 FMFlag=           0 FMFlg1=           0
         NFxFlg=           0 DoJE=F BraDBF=F KetDBF=F FulRan=T
         wScrn=  0.000000 ICntrl=       600 IOpCl=  9 I1Cent=           0 NGrid=           0
         NMat0=    0 NMatS0=      0 NMatT0=    0 NMatD0=    0 NMtDS0=    0 NMtDT0=    0
 Symmetry not used in FoFCou.
            6 integrals produced for a total of            6.
 Leave Link  320 at Wed Nov 24 18:46:03 2021, MaxMem=   104857600 cpu:               0.1 elap:               0.2
 (Enter /usr/local/g16reva03/legacy_cpu/g16/l401.exe)
 ExpMin= 1.69D-01 ExpMax= 3.43D+00 ExpMxC= 3.43D+00 IAcc=3 IRadAn=         5 AccDes= 0.00D+00
 Harris functional with IExCor=  205 and IRadAn=       5 diagonalized for initial guess.
 HarFok:  IExCor=  205 AccDes= 0.00D+00 IRadAn=         5 IDoV= 1 UseB2=F ITyADJ=14
 ICtDFT=  3500011 ScaDFX=  1.000000  1.000000  1.000000  1.000000
 FoFCou: FMM=F IPFlag=           0 FMFlag=      100000 FMFlg1=           0
         NFxFlg=           0 DoJE=T BraDBF=F KetDBF=T FulRan=T
         wScrn=  0.000000 ICntrl=       500 IOpCl=  0 I1Cent=   200000004 NGrid=           0
         NMat0=    1 NMatS0=      1 NMatT0=    0 NMatD0=    1 NMtDS0=    0 NMtDT0=    0
 Symmetry not used in FoFCou.
 Harris En= -1.10785036365447    
 JPrj=0 DoOrth=F DoCkMO=F.
 Leave Link  401 at Wed Nov 24 18:46:04 2021, MaxMem=   104857600 cpu:               0.2 elap:               0.4
 (Enter /usr/local/g16reva03/legacy_cpu/g16/l502.exe)
 Two-electron integral symmetry not used.
 Closed shell SCF:
 Using DIIS extrapolation, IDIIS=  1040.
 Unsorted integral processing.
 NGot=   104857600 LenX=   104594140 LenY=   104593258
 Requested convergence on RMS density matrix=1.00D-08 within 128 cycles.
 Requested convergence on MAX density matrix=1.00D-06.
 Requested convergence on             energy=1.00D-06.
 No special actions if energy rises.

 Cycle   1  Pass 1  IDiag  1:
 E= -1.03653887566175    
 DIIS: error= 1.55D-16 at cycle   1 NSaved=   1.
 NSaved= 1 IEnMin= 1 EnMin= -1.03653887566175     IErMin= 1 ErrMin= 1.55D-16
 ErrMax= 1.55D-16  0.00D+00 EMaxC= 1.00D-01 BMatC= 9.55D-32 BMatP= 9.55D-32
 IDIUse=1 WtCom= 1.00D+00 WtEn= 0.00D+00
 Coeff-Com:  0.100D+01
 Coeff:      0.100D+01
 Gap=     0.851 Goal=   None    Shift=    0.000
 Skip diagonalization as Alpha Fock matrix is already diagonal.
 RMSDP=0.00D+00 MaxDP=0.00D+00              OVMax= 0.00D+00

 SCF Done:  E(RHF) =  -1.03653887566     A.U. after    1 cycles
            NFock=  1  Conv=0.00D+00     -V/T= 1.8900
 KE= 1.164684146798D+00 PE=-3.291464894125D+00 EE= 6.091716799199D-01
 Leave Link  502 at Wed Nov 24 18:46:04 2021, MaxMem=   104857600 cpu:               0.1 elap:               0.1
 (Enter /usr/local/g16reva03/legacy_cpu/g16/l601.exe)
 Copying SCF densities to generalized density rwf, IOpCl= 0 IROHF=0.

 **********************************************************************

            Population analysis using the SCF density.

 **********************************************************************

 Alpha  occ. eigenvalues --   -0.45422
 Alpha virt. eigenvalues --    0.39670
          Condensed to atoms (all electrons):
               1          2
     1  H    0.694644   0.305356
     2  H    0.305356   0.694644
 Mulliken charges:
               1
     1  H   -0.000000
     2  H    0.000000
 Sum of Mulliken charges =   0.00000
 Mulliken charges with hydrogens summed into heavy atoms:
               1
 Electronic spatial extent (au):  <R**2>=              8.0071
 Charge=              0.0000 electrons
 Dipole moment (field-independent basis, Debye):
    X=              0.0000    Y=              0.0000    Z=              0.0000  Tot=              0.0000
 Quadrupole moment (field-independent basis, Debye-Ang):
   XX=             -1.8906   YY=             -1.8906   ZZ=             -1.1767
   XY=              0.0000   XZ=              0.0000   YZ=              0.0000
 Traceless Quadrupole moment (field-independent basis, Debye-Ang):
   XX=             -0.2380   YY=             -0.2380   ZZ=              0.4760
   XY=              0.0000   XZ=              0.0000   YZ=              0.0000
 Octapole moment (field-independent basis, Debye-Ang**2):
  XXX=              0.0000  YYY=              0.0000  ZZZ=             -1.9415  XYY=              0.0000
  XXY=              0.0000  XXZ=             -1.0399  XZZ=              0.0000  YZZ=              0.0000
  YYZ=             -1.0399  XYZ=              0.0000
 Hexadecapole moment (field-independent basis, Debye-Ang**3):
 XXXX=             -1.5926 YYYY=             -1.5926 ZZZZ=             -5.8345 XXXY=              0.0000
 XXXZ=              0.0000 YYYX=              0.0000 YYYZ=              0.0000 ZZZX=              0.0000
 ZZZY=              0.0000 XXYY=             -0.5309 XXZZ=             -1.4948 YYZZ=             -1.4948
 XXYZ=              0.0000 YYXZ=              0.0000 ZZXY=              0.0000
 N-N= 4.810701917455D-01 E-N=-3.291464894125D+00  KE= 1.164684146798D+00
 No NMR shielding tensors so no spin-rotation constants.
 Leave Link  601 at Wed Nov 24 18:46:04 2021, MaxMem=   104857600 cpu:               0.1 elap:               0.1
 (Enter /usr/local/g16reva03/legacy_cpu/g16/l9999.exe)
 1\1\GINC-USER2\SP\RHF\STO-3G\H2\MRAMIN02\24-Nov-2021\0\\#P rhf nosymm 
 output=matrix int=noraf scf=conven\\test\\0,1\H\H,1,1.1\\Version=EM64L
 -G16RevA.03\HF=-1.0365389\RMSD=0.000e+00\Dipole=0.,0.,0.\Quadrupole=-0
 .1769414,-0.1769414,0.3538829,0.,0.,0.\PG=D*H [C*(H1.H1)]\\@


 Money is a good servant but a bad master.
                        -- French Proverb

 Writing WrtUnf unformatted file "h2_rhf.mat"
 Gaussian matrix elements                                         Version   2 NLab=11 Len12L=8 Len4L=8
 Write SHELL TO ATOM MAP                   from file     0 offset           0 length                   2 to matrix element file.
 Write SHELL TYPES                         from file     0 offset           0 length                   2 to matrix element file.
 Write NUMBER OF PRIMITIVES PER SHELL      from file     0 offset           0 length                   2 to matrix element file.
 Write PRIMITIVE EXPONENTS                 from file     0 offset           0 length                   6 to matrix element file.
 Write CONTRACTION COEFFICIENTS            from file     0 offset           0 length                   6 to matrix element file.
 Write P(S=P) CONTRACTION COEFFICIENTS     from file     0 offset           0 length                   6 to matrix element file.
 Write COORDINATES OF EACH SHELL           from file     0 offset           0 length                   6 to matrix element file.
 Write GAUSSIAN SCALARS                    from file   501 offset           0 to matrix element file.
 Write INTEGER ISO                         from file     0 offset           0 length                   2 to matrix element file.
 Write INTEGER SPIN                        from file     0 offset           0 length                   2 to matrix element file.
 Write REAL ZEFFECTIVE                     from file     0 offset           0 length                   2 to matrix element file.
 Write REAL GFACTOR                        from file     0 offset           0 length                   2 to matrix element file.
 Write REAL ZNUCLEAR                       from file     0 offset           0 length                   2 to matrix element file.
 Write NUCLEAR GRADIENT                    from file 10584 offset           0 length                   6 to matrix element file.
 Array NUCLEAR FORCE CONSTANTS              on  file 10585 does not exist.
 Write ELECTRIC DIPOLE MOMENT              from file     0 offset           0 length                   3 to matrix element file.
 Write OVERLAP                             from file   514 offset           0 length                   3 to matrix element file.
 Write CORE HAMILTONIAN ALPHA              from file   515 offset           0 length                   3 to matrix element file.
 Write CORE HAMILTONIAN BETA               from file   515 offset           3 length                   3 to matrix element file.
 Write KINETIC ENERGY                      from file   516 offset           0 length                   3 to matrix element file.
 Write ORTHOGONAL BASIS                    from file   685 offset           0 length                   4 to matrix element file.
 Write DIPOLE INTEGRALS                    from file   518 offset           0 length                   9 to matrix element file.
 Write DIP VEL INTEGRALS                   from file   572 offset           0 length                   9 to matrix element file.
 Write R X DEL INTEGRALS                   from file   572 offset           9 length                   9 to matrix element file.
 Write ALPHA ORBITAL ENERGIES              from file     0 offset           0 length                   2 to matrix element file.
 Write ALPHA MO COEFFICIENTS               from file 10524 offset           0 length                   4 to matrix element file.
 Write ALPHA DENSITY MATRIX                from file 10528 offset           0 length                   3 to matrix element file.
 Write ALPHA SCF DENSITY MATRIX            from file 10528 offset           0 length                   3 to matrix element file.
 Write ALPHA FOCK MATRIX                   from file 10536 offset           0 length                   3 to matrix element file.
 Write REGULAR 2E INTEGRALS                to matrix element file, NR=1 ITotal=           6.
 Job cpu time:       0 days  0 hours  0 minutes  1.6 seconds.
 Elapsed time:       0 days  0 hours  0 minutes  2.7 seconds.
 File lengths (MBytes):  RWF=     72 Int=      4 D2E=      0 Chk=      8 Scr=      8
 Normal termination of Gaussian 16 at Wed Nov 24 18:46:05 2021.
