************************************************************
This is node202 of the Cardinal research cluster.
Date: Wed Nov 24 19:15:02 EST 2021
************************************************************
 Set GAUSS_MDEF to "12GB".
 Set GAUSS_PDEF to "8".
 Entering Gaussian System, Link 0=g16
 Initial command:
 /usr/local/g16reva03/legacy_cpu/g16/l1.exe "/tmp/tmp.brdMecYOkJ/Gau-19558.inp" -scrdir="/tmp/tmp.brdMecYOkJ/"
 Default is to use a total of   8 processors:
                                8 via shared-memory
                                1 via Linda
 Entering Link 1 = /usr/local/g16reva03/legacy_cpu/g16/l1.exe PID=     19559.
  
 Copyright (c) 1988,1990,1992,1993,1995,1998,2003,2009,2016,
            Gaussian, Inc.  All Rights Reserved.
  
 This is part of the Gaussian(R) 16 program.  It is based on
 the Gaussian(R) 09 system (copyright 2009, Gaussian, Inc.),
 the Gaussian(R) 03 system (copyright 2003, Gaussian, Inc.),
 the Gaussian(R) 98 system (copyright 1998, Gaussian, Inc.),
 the Gaussian(R) 94 system (copyright 1995, Gaussian, Inc.),
 the Gaussian 92(TM) system (copyright 1992, Gaussian, Inc.),
 the Gaussian 90(TM) system (copyright 1990, Gaussian, Inc.),
 the Gaussian 88(TM) system (copyright 1988, Gaussian, Inc.),
 the Gaussian 86(TM) system (copyright 1986, Carnegie Mellon
 University), and the Gaussian 82(TM) system (copyright 1983,
 Carnegie Mellon University). Gaussian is a federally registered
 trademark of Gaussian, Inc.
  
 This software contains proprietary and confidential information,
 including trade secrets, belonging to Gaussian, Inc.
  
 This software is provided under written license and may be
 used, copied, transmitted, or stored only in accord with that
 written license.
  
 The following legend is applicable only to US Government
 contracts under FAR:
  
                    RESTRICTED RIGHTS LEGEND
  
 Use, reproduction and disclosure by the US Government is
 subject to restrictions as set forth in subparagraphs (a)
 and (c) of the Commercial Computer Software - Restricted
 Rights clause in FAR 52.227-19.
  
 Gaussian, Inc.
 340 Quinnipiac St., Bldg. 40, Wallingford CT 06492
  
  
 ---------------------------------------------------------------
 Warning -- This program may not be used in any manner that
 competes with the business of Gaussian, Inc. or will provide
 assistance to any competitor of Gaussian, Inc.  The licensee
 of this program is prohibited from giving any competitor of
 Gaussian, Inc. access to this program.  By using this program,
 the user acknowledges that Gaussian, Inc. is engaged in the
 business of creating and licensing software in the field of
 computational chemistry and represents and warrants to the
 licensee that it is not a competitor of Gaussian, Inc. and that
 it will not use this program in any manner prohibited above.
 ---------------------------------------------------------------
  

 Cite this work as:
 Gaussian 16, Revision A.03,
 M. J. Frisch, G. W. Trucks, H. B. Schlegel, G. E. Scuseria, 
 M. A. Robb, J. R. Cheeseman, G. Scalmani, V. Barone, 
 G. A. Petersson, H. Nakatsuji, X. Li, M. Caricato, A. V. Marenich, 
 J. Bloino, B. G. Janesko, R. Gomperts, B. Mennucci, H. P. Hratchian, 
 J. V. Ortiz, A. F. Izmaylov, J. L. Sonnenberg, D. Williams-Young, 
 F. Ding, F. Lipparini, F. Egidi, J. Goings, B. Peng, A. Petrone, 
 T. Henderson, D. Ranasinghe, V. G. Zakrzewski, J. Gao, N. Rega, 
 G. Zheng, W. Liang, M. Hada, M. Ehara, K. Toyota, R. Fukuda, 
 J. Hasegawa, M. Ishida, T. Nakajima, Y. Honda, O. Kitao, H. Nakai, 
 T. Vreven, K. Throssell, J. A. Montgomery, Jr., J. E. Peralta, 
 F. Ogliaro, M. J. Bearpark, J. J. Heyd, E. N. Brothers, K. N. Kudin, 
 V. N. Staroverov, T. A. Keith, R. Kobayashi, J. Normand, 
 K. Raghavachari, A. P. Rendell, J. C. Burant, S. S. Iyengar, 
 J. Tomasi, M. Cossi, J. M. Millam, M. Klene, C. Adamo, R. Cammi, 
 J. W. Ochterski, R. L. Martin, K. Morokuma, O. Farkas, 
 J. B. Foresman, and D. J. Fox, Gaussian, Inc., Wallingford CT, 2016.
 
 ******************************************
 Gaussian 16:  EM64L-G16RevA.03 25-Dec-2016
                24-Nov-2021 
 ******************************************
 ----------------------------------------------------------------------
 #P uhf guess=mix stable =opt nosymm output=matrix int=noraf scf=conven
 ----------------------------------------------------------------------
 1/38=1,172=1/1;
 2/12=2,15=1,17=6,18=5,40=1/2;
 3/25=20,28=1,30=1,116=2/1,2,3,8,20;
 4/13=-1/1;
 5/5=1,29=1/2;
 6/7=2,8=2,9=2,10=2,28=1/1;
 8/6=1,10=90,11=11/1;
 9/8=-3,42=1,46=1,101=1/14;
 5/5=1,8=3,17=40,29=1/8(-2);
 6/7=2,8=2,9=2,10=2,28=1/1;
 99/5=1,6=100000,9=1/99;
 Leave Link    1 at Wed Nov 24 19:15:02 2021, MaxMem=           0 cpu:               0.5 elap:               0.1
 (Enter /usr/local/g16reva03/legacy_cpu/g16/l101.exe)
 ----
 test
 ----
 Symbolic Z-matrix:
 Charge =  0 Multiplicity = 1
 H
 H                    1     1.1 
 
 ITRead=  0  0
 MicOpt= -1 -1
 NAtoms=      2 NQM=        2 NQMF=       0 NMMI=      0 NMMIF=      0
                NMic=       0 NMicF=      0.
                    Isotopes and Nuclear Properties:
 (Nuclear quadrupole moments (NQMom) in fm**2, nuclear magnetic moments (NMagM)
  in nuclear magnetons)

  Atom         1           2
 IAtWgt=           1           1
 AtmWgt=   1.0078250   1.0078250
 NucSpn=           1           1
 AtZEff=  -0.0000000  -0.0000000
 NQMom=    0.0000000   0.0000000
 NMagM=    2.7928460   2.7928460
 AtZNuc=   1.0000000   1.0000000
 Leave Link  101 at Wed Nov 24 19:15:02 2021, MaxMem=  1610612736 cpu:               1.3 elap:               0.2
 (Enter /usr/local/g16reva03/legacy_cpu/g16/l202.exe)
                          Input orientation:                          
 ---------------------------------------------------------------------
 Center     Atomic      Atomic             Coordinates (Angstroms)
 Number     Number       Type             X           Y           Z
 ---------------------------------------------------------------------
      1          1           0        0.000000    0.000000    0.000000
      2          1           0        0.000000    0.000000    1.100000
 ---------------------------------------------------------------------
 Symmetry turned off by external request.
 Stoichiometry    H2
 Framework group  D*H[C*(H.H)]
 Deg. of freedom     1
 Full point group                 D*H     NOp   8
 Rotational constants (GHZ):           0.0000000         828.8514123         828.8514123
 Leave Link  202 at Wed Nov 24 19:15:03 2021, MaxMem=  1610612736 cpu:               0.2 elap:               0.1
 (Enter /usr/local/g16reva03/legacy_cpu/g16/l301.exe)
 Standard basis: STO-3G (5D, 7F)
 Ernie: Thresh=  0.10000D-02 Tol=  0.10000D-05 Strict=F.
     2 basis functions,     6 primitive gaussians,     2 cartesian basis functions
     1 alpha electrons        1 beta electrons
       nuclear repulsion energy         0.4810701917 Hartrees.
 IExCor=    0 DFT=F Ex=HF Corr=None ExCW=0 ScaHFX=  1.000000
 ScaDFX=  1.000000  1.000000  1.000000  1.000000 ScalE2=  1.000000  1.000000
 IRadAn=      5 IRanWt=     -1 IRanGd=            0 ICorTp=0 IEmpDi=  4
 NAtoms=    2 NActive=    2 NUniq=    2 SFac= 1.00D+00 NAtFMM=   60 NAOKFM=F Big=F
 Integral buffers will be    131072 words long.
 Regular integral format.
 Two-electron integral symmetry is turned off.
 Leave Link  301 at Wed Nov 24 19:15:03 2021, MaxMem=  1610612736 cpu:               0.8 elap:               0.1
 (Enter /usr/local/g16reva03/legacy_cpu/g16/l302.exe)
 NPDir=0 NMtPBC=     1 NCelOv=     1 NCel=       1 NClECP=     1 NCelD=      1
         NCelK=      1 NCelE2=     1 NClLst=     1 CellRange=     0.0.
 One-electron integrals computed using PRISM.
 NBasis=     2 RedAO= T EigKep=  5.60D-01  NBF=     2
 NBsUse=     2 1.00D-06 EigRej= -1.00D+00 NBFU=     2
 Leave Link  302 at Wed Nov 24 19:15:03 2021, MaxMem=  1610612736 cpu:               0.8 elap:               0.1
 (Enter /usr/local/g16reva03/legacy_cpu/g16/l303.exe)
 DipDrv:  MaxL=1.
 Leave Link  303 at Wed Nov 24 19:15:03 2021, MaxMem=  1610612736 cpu:               0.3 elap:               0.1
 (Enter /usr/local/g16reva03/legacy_cpu/g16/l308.exe)
 Leave Link  308 at Wed Nov 24 19:15:03 2021, MaxMem=  1610612736 cpu:               0.3 elap:               0.1
 (Enter /usr/local/g16reva03/legacy_cpu/g16/l320.exe)
 Enter DskPsm, NBasis=   2 NBas6D=   2 NShell=   2 IDoSP=4.
 Out2e will use a cutoff of  1.00D-10
 FoFCou: FMM=F IPFlag=           0 FMFlag=           0 FMFlg1=           0
         NFxFlg=           0 DoJE=F BraDBF=F KetDBF=F FulRan=T
         wScrn=  0.000000 ICntrl=       600 IOpCl=  9 I1Cent=           0 NGrid=           0
         NMat0=    0 NMatS0=      0 NMatT0=    0 NMatD0=    0 NMtDS0=    0 NMtDT0=    0
 Symmetry not used in FoFCou.
            6 integrals produced for a total of            6.
 Leave Link  320 at Wed Nov 24 19:15:03 2021, MaxMem=  1610612736 cpu:               0.6 elap:               0.1
 (Enter /usr/local/g16reva03/legacy_cpu/g16/l401.exe)
 ExpMin= 1.69D-01 ExpMax= 3.43D+00 ExpMxC= 3.43D+00 IAcc=3 IRadAn=         5 AccDes= 0.00D+00
 Harris functional with IExCor=  205 and IRadAn=       5 diagonalized for initial guess.
 HarFok:  IExCor=  205 AccDes= 0.00D+00 IRadAn=         5 IDoV= 1 UseB2=F ITyADJ=14
 ICtDFT=  3500011 ScaDFX=  1.000000  1.000000  1.000000  1.000000
 FoFCou: FMM=F IPFlag=           0 FMFlag=      100000 FMFlg1=           0
         NFxFlg=           0 DoJE=T BraDBF=F KetDBF=T FulRan=T
         wScrn=  0.000000 ICntrl=       500 IOpCl=  0 I1Cent=   200000004 NGrid=           0
         NMat0=    1 NMatS0=      1 NMatT0=    0 NMatD0=    1 NMtDS0=    0 NMtDT0=    0
 Symmetry not used in FoFCou.
 Harris En= -1.10785036365447    
 JPrj=0 DoOrth=F DoCkMO=T.
 Mixing orbitals, IMix= 1 IMixAn=  0 NRI=1 NE=    1 Coef=  7.07106781D-01  7.07106781D-01
 Mixing orbitals, IMix= 1 IMixAn=  0 NRI=1 NE=    1 Coef= -7.07106781D-01  7.07106781D-01
 Initial guess <Sx>= 0.0000 <Sy>= 0.0000 <Sz>= 0.0000 <S**2>= 1.0000 S= 0.6180
 Leave Link  401 at Wed Nov 24 19:15:04 2021, MaxMem=  1610612736 cpu:               0.9 elap:               0.2
 (Enter /usr/local/g16reva03/legacy_cpu/g16/l502.exe)
 Two-electron integral symmetry not used.
 UHF open shell SCF:
 Using DIIS extrapolation, IDIIS=  1040.
 Unsorted integral processing.
 NGot=  1610612736 LenX=  1610349234 LenY=  1610348352
 Requested convergence on RMS density matrix=1.00D-08 within 128 cycles.
 Requested convergence on MAX density matrix=1.00D-06.
 Requested convergence on             energy=1.00D-06.
 No special actions if energy rises.

 Cycle   1  Pass 1  IDiag  1:
 E=-0.784964526267764    
 DIIS: error= 1.16D-01 at cycle   1 NSaved=   1.
 NSaved= 1 IEnMin= 1 EnMin=-0.784964526267764     IErMin= 1 ErrMin= 1.16D-01
 ErrMax= 1.16D-01  0.00D+00 EMaxC= 1.00D-01 BMatC= 2.14D-01 BMatP= 2.14D-01
 IDIUse=3 WtCom= 0.00D+00 WtEn= 1.00D+00
 Coeff-Com:  0.100D+01
 Coeff-En:   0.100D+01
 Coeff:      0.100D+01
 Gap=     0.811 Goal=   None    Shift=    0.000
 Gap=     0.811 Goal=   None    Shift=    0.000
 GapD=    0.811 DampG=2.000 DampE=0.250 DampFc=0.5000 IDamp=-1.
 Damping current iteration by 5.00D-01
 RMSDP=2.43D-01 MaxDP=3.07D-01              OVMax= 0.00D+00

 Cycle   2  Pass 1  IDiag  1:
 E=-0.860052276654797     Delta-E=       -0.075087750387 Rises=F Damp=T
 DIIS: error= 8.36D-02 at cycle   2 NSaved=   2.
 NSaved= 2 IEnMin= 2 EnMin=-0.860052276654797     IErMin= 2 ErrMin= 8.36D-02
 ErrMax= 8.36D-02  0.00D+00 EMaxC= 1.00D-01 BMatC= 1.12D-01 BMatP= 2.14D-01
 IDIUse=3 WtCom= 1.64D-01 WtEn= 8.36D-01
 Coeff-Com: -0.261D+01 0.361D+01
 Coeff-En:   0.000D+00 0.100D+01
 Coeff:     -0.427D+00 0.143D+01
 Gap=     0.935 Goal=   None    Shift=    0.000
 Gap=     0.935 Goal=   None    Shift=    0.000
 RMSDP=1.95D-01 MaxDP=2.38D-01 DE=-7.51D-02 OVMax= 0.00D+00

 Cycle   3  Pass 1  IDiag  1:
 E=-0.993222996980273     Delta-E=       -0.133170720325 Rises=F Damp=F
 DIIS: error= 3.79D-02 at cycle   3 NSaved=   3.
 NSaved= 3 IEnMin= 3 EnMin=-0.993222996980273     IErMin= 3 ErrMin= 3.79D-02
 ErrMax= 3.79D-02  0.00D+00 EMaxC= 1.00D-01 BMatC= 2.29D-02 BMatP= 1.12D-01
 IDIUse=3 WtCom= 6.21D-01 WtEn= 3.79D-01
 Large coefficients: NSaved=  3 BigCof=    0.00 CofMax=   10.00 Det=-6.94D-18
 Inversion failed.  Reducing to  2 matrices.
 Coeff-Com: -0.827D+00 0.183D+01
 Coeff-En:   0.000D+00 0.100D+01
 Coeff:     -0.514D+00 0.151D+01
 Gap=     0.931 Goal=   None    Shift=    0.000
 Gap=     0.931 Goal=   None    Shift=    0.000
 RMSDP=1.15D-01 MaxDP=1.57D-01 DE=-1.33D-01 OVMax= 0.00D+00

 Cycle   4  Pass 1  IDiag  1:
 E= -1.02167482166817     Delta-E=       -0.028451824688 Rises=F Damp=F
 DIIS: error= 1.73D-02 at cycle   4 NSaved=   3.
 NSaved= 3 IEnMin= 3 EnMin= -1.02167482166817     IErMin= 3 ErrMin= 1.73D-02
 ErrMax= 1.73D-02  0.00D+00 EMaxC= 1.00D-01 BMatC= 4.80D-03 BMatP= 2.29D-02
 IDIUse=3 WtCom= 8.27D-01 WtEn= 1.73D-01
 Large coefficients: NSaved=  3 BigCof=    0.00 CofMax=   10.00 Det=-2.60D-18
 Inversion failed.  Reducing to  2 matrices.
 Coeff-Com: -0.843D+00 0.184D+01
 Coeff-En:   0.000D+00 0.100D+01
 Coeff:     -0.697D+00 0.170D+01
 Gap=     0.884 Goal=   None    Shift=    0.000
 Gap=     0.884 Goal=   None    Shift=    0.000
 RMSDP=8.63D-02 MaxDP=1.28D-01 DE=-2.85D-02 OVMax= 0.00D+00

 Cycle   5  Pass 1  IDiag  1:
 E= -1.03166248160814     Delta-E=       -0.009987659940 Rises=F Damp=F
 DIIS: error= 7.60D-03 at cycle   5 NSaved=   3.
 NSaved= 3 IEnMin= 3 EnMin= -1.03166248160814     IErMin= 3 ErrMin= 7.60D-03
 ErrMax= 7.60D-03  0.00D+00 EMaxC= 1.00D-01 BMatC= 9.25D-04 BMatP= 4.80D-03
 IDIUse=3 WtCom= 9.24D-01 WtEn= 7.60D-02
 Large coefficients: NSaved=  3 BigCof=    0.00 CofMax=   10.00 Det=-4.34D-19
 Inversion failed.  Reducing to  2 matrices.
 Coeff-Com: -0.783D+00 0.178D+01
 Coeff-En:   0.000D+00 0.100D+01
 Coeff:     -0.723D+00 0.172D+01
 Gap=     0.864 Goal=   None    Shift=    0.000
 Gap=     0.864 Goal=   None    Shift=    0.000
 RMSDP=6.42D-02 MaxDP=9.79D-02 DE=-9.99D-03 OVMax= 0.00D+00

 Cycle   6  Pass 1  IDiag  1:
 E= -1.03503532220429     Delta-E=       -0.003372840596 Rises=F Damp=F
 DIIS: error= 3.37D-03 at cycle   6 NSaved=   3.
 NSaved= 3 IEnMin= 3 EnMin= -1.03503532220429     IErMin= 3 ErrMin= 3.37D-03
 ErrMax= 3.37D-03  0.00D+00 EMaxC= 1.00D-01 BMatC= 1.82D-04 BMatP= 9.25D-04
 IDIUse=3 WtCom= 9.66D-01 WtEn= 3.37D-02
 Large coefficients: NSaved=  3 BigCof=    0.00 CofMax=   10.00 Det= 0.00D+00
 Inversion failed.  Reducing to  2 matrices.
 Coeff-Com: -0.798D+00 0.180D+01
 Coeff-En:   0.000D+00 0.100D+01
 Coeff:     -0.771D+00 0.177D+01
 Gap=     0.854 Goal=   None    Shift=    0.000
 Gap=     0.854 Goal=   None    Shift=    0.000
 RMSDP=5.01D-02 MaxDP=7.55D-02 DE=-3.37D-03 OVMax= 0.00D+00

 Cycle   7  Pass 1  IDiag  1:
 E= -1.03619945357623     Delta-E=       -0.001164131372 Rises=F Damp=F
 DIIS: error= 1.39D-03 at cycle   7 NSaved=   3.
 NSaved= 3 IEnMin= 3 EnMin= -1.03619945357623     IErMin= 3 ErrMin= 1.39D-03
 ErrMax= 1.39D-03  0.00D+00 EMaxC= 1.00D-01 BMatC= 3.08D-05 BMatP= 1.82D-04
 IDIUse=3 WtCom= 9.86D-01 WtEn= 1.39D-02
 Large coefficients: NSaved=  3 BigCof=    0.00 CofMax=   10.00 Det= 1.36D-20
 Inversion failed.  Reducing to  2 matrices.
 Coeff-Com: -0.698D+00 0.170D+01
 Coeff-En:   0.000D+00 0.100D+01
 Coeff:     -0.689D+00 0.169D+01
 Gap=     0.852 Goal=   None    Shift=    0.000
 Gap=     0.852 Goal=   None    Shift=    0.000
 RMSDP=3.46D-02 MaxDP=5.07D-02 DE=-1.16D-03 OVMax= 0.00D+00

 Cycle   8  Pass 1  IDiag  1:
 E= -1.03650749872490     Delta-E=       -0.000308045149 Rises=F Damp=F
 DIIS: error= 4.00D-04 at cycle   8 NSaved=   3.
 NSaved= 3 IEnMin= 3 EnMin= -1.03650749872490     IErMin= 3 ErrMin= 4.00D-04
 ErrMax= 4.00D-04  0.00D+00 EMaxC= 1.00D-01 BMatC= 2.56D-06 BMatP= 3.08D-05
 IDIUse=3 WtCom= 9.96D-01 WtEn= 4.00D-03
 Large coefficients: NSaved=  3 BigCof=    0.00 CofMax=   10.00 Det= 1.69D-20
 Inversion failed.  Reducing to  2 matrices.
 Coeff-Com: -0.405D+00 0.141D+01
 Coeff-En:   0.000D+00 0.100D+01
 Coeff:     -0.404D+00 0.140D+01
 Gap=     0.851 Goal=   None    Shift=    0.000
 Gap=     0.851 Goal=   None    Shift=    0.000
 RMSDP=1.40D-02 MaxDP=2.00D-02 DE=-3.08D-04 OVMax= 0.00D+00

 Cycle   9  Pass 1  IDiag  1:
 E= -1.03653857802423     Delta-E=       -0.000031079299 Rises=F Damp=F
 DIIS: error= 3.88D-05 at cycle   9 NSaved=   3.
 NSaved= 3 IEnMin= 3 EnMin= -1.03653857802423     IErMin= 3 ErrMin= 3.88D-05
 ErrMax= 3.88D-05  0.00D+00 EMaxC= 1.00D-01 BMatC= 2.40D-08 BMatP= 2.56D-06
 IDIUse=1 WtCom= 1.00D+00 WtEn= 0.00D+00
 Large coefficients: NSaved=  3 BigCof=    0.00 CofMax=   10.00 Det= 4.24D-22
 Inversion failed.  Reducing to  2 matrices.
 Coeff-Com: -0.107D+00 0.111D+01
 Coeff:     -0.107D+00 0.111D+01
 Gap=     0.851 Goal=   None    Shift=    0.000
 Gap=     0.851 Goal=   None    Shift=    0.000
 RMSDP=1.50D-03 MaxDP=2.12D-03 DE=-3.11D-05 OVMax= 0.00D+00

 Cycle  10  Pass 1  IDiag  1:
 E= -1.03653887564075     Delta-E=       -0.000000297617 Rises=F Damp=F
 DIIS: error= 3.25D-07 at cycle  10 NSaved=   3.
 NSaved= 3 IEnMin= 3 EnMin= -1.03653887564075     IErMin= 3 ErrMin= 3.25D-07
 ErrMax= 3.25D-07  0.00D+00 EMaxC= 1.00D-01 BMatC= 1.69D-12 BMatP= 2.40D-08
 IDIUse=1 WtCom= 1.00D+00 WtEn= 0.00D+00
 Large coefficients: NSaved=  3 BigCof=    0.00 CofMax=   10.00 Det= 0.00D+00
 Inversion failed.  Reducing to  2 matrices.
 Coeff-Com: -0.847D-02 0.101D+01
 Coeff:     -0.847D-02 0.101D+01
 Gap=     0.851 Goal=   None    Shift=    0.000
 Gap=     0.851 Goal=   None    Shift=    0.000
 RMSDP=1.27D-05 MaxDP=1.80D-05 DE=-2.98D-07 OVMax= 0.00D+00

 Cycle  11  Pass 1  IDiag  1:
 E= -1.03653887566175     Delta-E=       -0.000000000021 Rises=F Damp=F
 DIIS: error= 2.41D-11 at cycle  11 NSaved=   3.
 NSaved= 3 IEnMin= 3 EnMin= -1.03653887566175     IErMin= 3 ErrMin= 2.41D-11
 ErrMax= 2.41D-11  0.00D+00 EMaxC= 1.00D-01 BMatC= 9.32D-21 BMatP= 1.69D-12
 IDIUse=1 WtCom= 1.00D+00 WtEn= 0.00D+00
 Large coefficients: NSaved=  3 BigCof=    0.00 CofMax=   10.00 Det=-4.04D-28
 Inversion failed.  Reducing to  2 matrices.
 Coeff-Com: -0.742D-04 0.100D+01
 Coeff:     -0.742D-04 0.100D+01
 Gap=     0.851 Goal=   None    Shift=    0.000
 Gap=     0.851 Goal=   None    Shift=    0.000
 RMSDP=9.41D-10 MaxDP=1.33D-09 DE=-2.10D-11 OVMax= 0.00D+00

 SCF Done:  E(UHF) =  -1.03653887566     A.U. after   11 cycles
            NFock= 11  Conv=0.94D-09     -V/T= 1.8900
 <Sx>= 0.0000 <Sy>= 0.0000 <Sz>= 0.0000 <S**2>= 0.0000 S= 0.0000
 <L.S>= 0.000000000000E+00
 KE= 1.164684146798D+00 PE=-3.291464894125D+00 EE= 6.091716799199D-01
 Annihilation of the first spin contaminant:
 S**2 before annihilation     0.0000,   after     0.0000
 Leave Link  502 at Wed Nov 24 19:15:04 2021, MaxMem=  1610612736 cpu:               0.4 elap:               0.1
 (Enter /usr/local/g16reva03/legacy_cpu/g16/l601.exe)
 Copying SCF densities to generalized density rwf, IOpCl= 1 IROHF=0.

 **********************************************************************

            Population analysis using the SCF density.

 **********************************************************************

 Alpha  occ. eigenvalues --   -0.45422
 Alpha virt. eigenvalues --    0.39670
  Beta  occ. eigenvalues --   -0.45422
  Beta virt. eigenvalues --    0.39670
          Condensed to atoms (all electrons):
               1          2
     1  H    0.694644   0.305356
     2  H    0.305356   0.694644
          Atomic-Atomic Spin Densities.
               1          2
     1  H   -0.000000   0.000000
     2  H    0.000000   0.000000
 Mulliken charges and spin densities:
               1          2
     1  H    0.000000  -0.000000
     2  H    0.000000   0.000000
 Sum of Mulliken charges =   0.00000   0.00000
 Mulliken charges and spin densities with hydrogens summed into heavy atoms:
               1          2
 Electronic spatial extent (au):  <R**2>=              8.0071
 Charge=              0.0000 electrons
 Dipole moment (field-independent basis, Debye):
    X=              0.0000    Y=              0.0000    Z=              0.0000  Tot=              0.0000
 Quadrupole moment (field-independent basis, Debye-Ang):
   XX=             -1.8906   YY=             -1.8906   ZZ=             -1.1767
   XY=              0.0000   XZ=              0.0000   YZ=              0.0000
 Traceless Quadrupole moment (field-independent basis, Debye-Ang):
   XX=             -0.2380   YY=             -0.2380   ZZ=              0.4760
   XY=              0.0000   XZ=              0.0000   YZ=              0.0000
 Octapole moment (field-independent basis, Debye-Ang**2):
  XXX=              0.0000  YYY=              0.0000  ZZZ=             -1.9415  XYY=              0.0000
  XXY=              0.0000  XXZ=             -1.0399  XZZ=              0.0000  YZZ=              0.0000
  YYZ=             -1.0399  XYZ=              0.0000
 Hexadecapole moment (field-independent basis, Debye-Ang**3):
 XXXX=             -1.5926 YYYY=             -1.5926 ZZZZ=             -5.8345 XXXY=              0.0000
 XXXZ=              0.0000 YYYX=              0.0000 YYYZ=              0.0000 ZZZX=              0.0000
 ZZZY=              0.0000 XXYY=             -0.5309 XXZZ=             -1.4948 YYZZ=             -1.4948
 XXYZ=              0.0000 YYXZ=              0.0000 ZZXY=              0.0000
 N-N= 4.810701917455D-01 E-N=-3.291464894125D+00  KE= 1.164684146798D+00
                          Isotropic Fermi Contact Couplings
        Atom                 a.u.       MegaHertz       Gauss      10(-4) cm-1
     1  H(1)              -0.00000      -0.00000      -0.00000      -0.00000
     2  H(1)               0.00000       0.00000       0.00000       0.00000
 --------------------------------------------------------
       Center         ----  Spin Dipole Couplings  ----
                      3XX-RR        3YY-RR        3ZZ-RR
 --------------------------------------------------------
     1   Atom        0.000000      0.000000      0.000000
     2   Atom        0.000000      0.000000      0.000000
 --------------------------------------------------------
                        XY            XZ            YZ
 --------------------------------------------------------
     1   Atom        0.000000      0.000000      0.000000
     2   Atom        0.000000      0.000000      0.000000
 --------------------------------------------------------


 ---------------------------------------------------------------------------------
              Anisotropic Spin Dipole Couplings in Principal Axis System
 ---------------------------------------------------------------------------------

       Atom             a.u.   MegaHertz   Gauss  10(-4) cm-1        Axes

              Baa     0.0000     0.000     0.000     0.000  1.0000  0.0000  0.0000
     1 H(1)   Bbb     0.0000     0.000     0.000     0.000 -0.0000  1.0000  0.0000
              Bcc     0.0000     0.000     0.000     0.000  0.0000  0.0000  1.0000
 
              Baa     0.0000     0.000     0.000     0.000  1.0000  0.0000  0.0000
     2 H(1)   Bbb     0.0000     0.000     0.000     0.000 -0.0000  1.0000  0.0000
              Bcc     0.0000     0.000     0.000     0.000  0.0000  0.0000  1.0000
 

 ---------------------------------------------------------------------------------

 No NMR shielding tensors so no spin-rotation constants.
 Leave Link  601 at Wed Nov 24 19:15:04 2021, MaxMem=  1610612736 cpu:               1.0 elap:               0.2
 (Enter /usr/local/g16reva03/legacy_cpu/g16/l801.exe)
 Range of M.O.s used for correlation:     1     2
 NBasis=     2 NAE=     1 NBE=     1 NFC=     0 NFV=     0
 NROrb=      2 NOA=     1 NOB=     1 NVA=     1 NVB=     1
 Leave Link  801 at Wed Nov 24 19:15:04 2021, MaxMem=  1610612736 cpu:               0.3 elap:               0.1
 (Enter /usr/local/g16reva03/legacy_cpu/g16/l914.exe)
 UHF ground state
 Doing stability rather than CIS.
 Two-electron integral symmetry not used.
 MDV=  1610612736 DFT=F DoStab=T Mixed=F DoRPA=F DoScal=F NonHer=F
 Making orbital integer symmetry assigments:
 FoFJK:  IHMeth= 1 ICntrl=       0 DoSepK=F KAlg= 0 I1Cent=           0 FoldK=F
 IRaf=         0 NMat=       2 IRICut=       1 DoRegI=T DoRafI=F ISym2E= 0 IDoP0=0 IntGTp=1.
 FoFCou: FMM=F IPFlag=           0 FMFlag=      100000 FMFlg1=           0
         NFxFlg=           0 DoJE=F BraDBF=F KetDBF=F FulRan=T
         wScrn=  0.000000 ICntrl=         0 IOpCl=  1 I1Cent=           0 NGrid=           0
         NMat0=    2 NMatS0=      2 NMatT0=    0 NMatD0=    2 NMtDS0=    0 NMtDT0=    0
 Symmetry not used in FoFCou.
     2 initial guesses have been made.
 Convergence on wavefunction:    0.001000000000000
 Davidson Disk Diagonalization:  ConvIn= 1.00D-03 SkipCon=T Conv= 1.00D-03.
 Max sub-space:     4 roots to seek:     2 dimension of matrix:            2
 Iteration     1 Dimension     2 NMult     0 NNew      2
 CISAX will form     2 AO SS matrices at one time.
 NMat=     2 NSing=     2 JSym2X= 0.
 New state      1 was old state      2
 Excitation Energies [eV] at current iteration:
 Root      1 :     1.098168457989946
 Root      2 :    23.218001417012110
 Convergence achieved for final wavefunctions.
 ***********************************************************************
 Stability analysis using <AA,BB:AA,BB> singles matrix:
 ***********************************************************************
 1PDM for each excited state written to RWF  633
 Ground to excited state transition densities written to RWF  633

 Eigenvectors of the stability matrix:
 
 Excited state symmetry could not be determined.
 Eigenvector   1:  3.000-?Sym  Eigenvalue= 0.0403569  <S**2>=2.000
      1A ->  2A        0.70711
      1B ->  2B       -0.70711
 
 Excited state symmetry could not be determined.
 Eigenvector   2:  1.000-?Sym  Eigenvalue= 0.8532459  <S**2>=0.000
      1A ->  2A        0.70711
      1B ->  2B        0.70711
 The wavefunction is stable under the perturbations considered.
 Leave Link  914 at Wed Nov 24 19:15:04 2021, MaxMem=  1610612736 cpu:               0.7 elap:               0.1
 (Enter /usr/local/g16reva03/legacy_cpu/g16/l508.exe)
 The wavefunction is already stable.
 Leave Link  508 at Wed Nov 24 19:15:04 2021, MaxMem=  1610612736 cpu:               0.1 elap:               0.0
 (Enter /usr/local/g16reva03/legacy_cpu/g16/l601.exe)
 Copying SCF densities to generalized density rwf, IOpCl= 1 IROHF=0.

 **********************************************************************

            Population analysis using the SCF density.

 **********************************************************************

 Alpha  occ. eigenvalues --   -0.45422
 Alpha virt. eigenvalues --    0.39670
  Beta  occ. eigenvalues --   -0.45422
  Beta virt. eigenvalues --    0.39670
          Condensed to atoms (all electrons):
               1          2
     1  H    0.694644   0.305356
     2  H    0.305356   0.694644
          Atomic-Atomic Spin Densities.
               1          2
     1  H   -0.000000   0.000000
     2  H    0.000000   0.000000
 Mulliken charges and spin densities:
               1          2
     1  H    0.000000  -0.000000
     2  H    0.000000   0.000000
 Sum of Mulliken charges =   0.00000   0.00000
 Mulliken charges and spin densities with hydrogens summed into heavy atoms:
               1          2
 Electronic spatial extent (au):  <R**2>=              8.0071
 Charge=              0.0000 electrons
 Dipole moment (field-independent basis, Debye):
    X=              0.0000    Y=              0.0000    Z=              0.0000  Tot=              0.0000
 Quadrupole moment (field-independent basis, Debye-Ang):
   XX=             -1.8906   YY=             -1.8906   ZZ=             -1.1767
   XY=              0.0000   XZ=              0.0000   YZ=              0.0000
 Traceless Quadrupole moment (field-independent basis, Debye-Ang):
   XX=             -0.2380   YY=             -0.2380   ZZ=              0.4760
   XY=              0.0000   XZ=              0.0000   YZ=              0.0000
 Octapole moment (field-independent basis, Debye-Ang**2):
  XXX=              0.0000  YYY=              0.0000  ZZZ=             -1.9415  XYY=              0.0000
  XXY=              0.0000  XXZ=             -1.0399  XZZ=              0.0000  YZZ=              0.0000
  YYZ=             -1.0399  XYZ=              0.0000
 Hexadecapole moment (field-independent basis, Debye-Ang**3):
 XXXX=             -1.5926 YYYY=             -1.5926 ZZZZ=             -5.8345 XXXY=              0.0000
 XXXZ=              0.0000 YYYX=              0.0000 YYYZ=              0.0000 ZZZX=              0.0000
 ZZZY=              0.0000 XXYY=             -0.5309 XXZZ=             -1.4948 YYZZ=             -1.4948
 XXYZ=              0.0000 YYXZ=              0.0000 ZZXY=              0.0000
 N-N= 4.810701917455D-01 E-N=-3.291464894125D+00  KE= 1.164684146798D+00
                          Isotropic Fermi Contact Couplings
        Atom                 a.u.       MegaHertz       Gauss      10(-4) cm-1
     1  H(1)              -0.00000      -0.00000      -0.00000      -0.00000
     2  H(1)               0.00000       0.00000       0.00000       0.00000
 --------------------------------------------------------
       Center         ----  Spin Dipole Couplings  ----
                      3XX-RR        3YY-RR        3ZZ-RR
 --------------------------------------------------------
     1   Atom        0.000000      0.000000      0.000000
     2   Atom        0.000000      0.000000      0.000000
 --------------------------------------------------------
                        XY            XZ            YZ
 --------------------------------------------------------
     1   Atom        0.000000      0.000000      0.000000
     2   Atom        0.000000      0.000000      0.000000
 --------------------------------------------------------


 ---------------------------------------------------------------------------------
              Anisotropic Spin Dipole Couplings in Principal Axis System
 ---------------------------------------------------------------------------------

       Atom             a.u.   MegaHertz   Gauss  10(-4) cm-1        Axes

              Baa     0.0000     0.000     0.000     0.000  1.0000  0.0000  0.0000
     1 H(1)   Bbb     0.0000     0.000     0.000     0.000 -0.0000  1.0000  0.0000
              Bcc     0.0000     0.000     0.000     0.000  0.0000  0.0000  1.0000
 
              Baa     0.0000     0.000     0.000     0.000  1.0000  0.0000  0.0000
     2 H(1)   Bbb     0.0000     0.000     0.000     0.000 -0.0000  1.0000  0.0000
              Bcc     0.0000     0.000     0.000     0.000  0.0000  0.0000  1.0000
 

 ---------------------------------------------------------------------------------

 No NMR shielding tensors so no spin-rotation constants.
 Leave Link  601 at Wed Nov 24 19:15:04 2021, MaxMem=  1610612736 cpu:               1.1 elap:               0.2
 (Enter /usr/local/g16reva03/legacy_cpu/g16/l9999.exe)
 1\1\GINC-NODE202\Stability\UHF\STO-3G\H2\ROOT\24-Nov-2021\0\\#P uhf gu
 ess=mix stable =opt nosymm output=matrix int=noraf scf=conven\\test\\0
 ,1\H\H,1,1.1\\Version=EM64L-G16RevA.03\HF=-1.0365389\S2=0.\S2-1=0.\S2A
 =0.\RMSD=9.414e-10\Dipole=0.,0.,0.\Quadrupole=-0.1769414,-0.1769414,0.
 3538829,0.,0.,0.\PG=D*H [C*(H1.H1)]\\@


 THE BEST WAY TO CONVINCE A FOOL THAT HE IS WRONG 
 IS TO LET HIM HAVE HIS OWN WAY.

                                         JOSH BILLINGS

 Writing WrtUnf unformatted file "h2_uhf.mat"
 Gaussian matrix elements                                         Version   2 NLab=11 Len12L=8 Len4L=8
 Write SHELL TO ATOM MAP                   from file     0 offset           0 length                   2 to matrix element file.
 Write SHELL TYPES                         from file     0 offset           0 length                   2 to matrix element file.
 Write NUMBER OF PRIMITIVES PER SHELL      from file     0 offset           0 length                   2 to matrix element file.
 Write PRIMITIVE EXPONENTS                 from file     0 offset           0 length                   6 to matrix element file.
 Write CONTRACTION COEFFICIENTS            from file     0 offset           0 length                   6 to matrix element file.
 Write P(S=P) CONTRACTION COEFFICIENTS     from file     0 offset           0 length                   6 to matrix element file.
 Write COORDINATES OF EACH SHELL           from file     0 offset           0 length                   6 to matrix element file.
 Write GAUSSIAN SCALARS                    from file   501 offset           0 to matrix element file.
 Write INTEGER ISO                         from file     0 offset           0 length                   2 to matrix element file.
 Write INTEGER SPIN                        from file     0 offset           0 length                   2 to matrix element file.
 Write REAL ZEFFECTIVE                     from file     0 offset           0 length                   2 to matrix element file.
 Write REAL GFACTOR                        from file     0 offset           0 length                   2 to matrix element file.
 Write REAL ZNUCLEAR                       from file     0 offset           0 length                   2 to matrix element file.
 Write NUCLEAR GRADIENT                    from file 10584 offset           0 length                   6 to matrix element file.
 Array NUCLEAR FORCE CONSTANTS              on  file 10585 does not exist.
 Write ELECTRIC DIPOLE MOMENT              from file     0 offset           0 length                   3 to matrix element file.
 Write OVERLAP                             from file   514 offset           0 length                   3 to matrix element file.
 Write CORE HAMILTONIAN ALPHA              from file   515 offset           0 length                   3 to matrix element file.
 Write CORE HAMILTONIAN BETA               from file   515 offset           3 length                   3 to matrix element file.
 Write KINETIC ENERGY                      from file   516 offset           0 length                   3 to matrix element file.
 Write ORTHOGONAL BASIS                    from file   685 offset           0 length                   4 to matrix element file.
 Write DIPOLE INTEGRALS                    from file   518 offset           0 length                   9 to matrix element file.
 Write DIP VEL INTEGRALS                   from file   572 offset           0 length                   9 to matrix element file.
 Write R X DEL INTEGRALS                   from file   572 offset           9 length                   9 to matrix element file.
 Write ALPHA ORBITAL ENERGIES              from file     0 offset           0 length                   2 to matrix element file.
 Write BETA ORBITAL ENERGIES               from file     0 offset           0 length                   2 to matrix element file.
 Write ALPHA MO COEFFICIENTS               from file 10524 offset           0 length                   4 to matrix element file.
 Write BETA MO COEFFICIENTS                from file 10526 offset           0 length                   4 to matrix element file.
 Write ALPHA DENSITY MATRIX                from file 10528 offset           0 length                   3 to matrix element file.
 Write BETA DENSITY MATRIX                 from file 10530 offset           0 length                   3 to matrix element file.
 Write ALPHA SCF DENSITY MATRIX            from file 10528 offset           0 length                   3 to matrix element file.
 Write BETA SCF DENSITY MATRIX             from file 10530 offset           0 length                   3 to matrix element file.
 Write ALPHA FOCK MATRIX                   from file 10536 offset           0 length                   3 to matrix element file.
 Write BETA FOCK MATRIX                    from file 10538 offset           0 length                   3 to matrix element file.
 Write REGULAR 2E INTEGRALS                to matrix element file, NR=1 ITotal=           6.
 Job cpu time:       0 days  0 hours  0 minutes 11.0 seconds.
 Elapsed time:       0 days  0 hours  0 minutes  1.9 seconds.
 File lengths (MBytes):  RWF=      6 Int=      1 D2E=      0 Chk=      1 Scr=      1
 Normal termination of Gaussian 16 at Wed Nov 24 19:15:05 2021.
